ITEM: TIMESTEP
0
ITEM: NUMBER OF ATOMS
100
ITEM: BOX BOUNDS ff ff ff
0.0000000000000000e+00 1.5850000000000000e+02
0.0000000000000000e+00 1.5850000000000000e+02
0.0000000000000000e+00 1.5850000000000000e+02
ITEM: ATOMS id type xs ys zs
17 1 0.4313 0.343165 0.441611
18 3 0.426544 0.342664 0.433028
16 3 0.43673 0.335678 0.44234
15 2 0.44507 0.340312 0.444693
19 1 0.427136 0.351656 0.432675
20 1 0.417909 0.35591 0.433343
21 1 0.415475 0.362625 0.438799
22 3 0.417705 0.359858 0.447363
14 2 0.444567 0.341234 0.45477
13 2 0.449915 0.336394 0.461718
12 2 0.454666 0.342173 0.466876
11 3 0.46487 0.34014 0.470951
10 3 0.466317 0.337016 0.479679
9 2 0.475566 0.339301 0.480486
23 1 0.411278 0.362183 0.452983
24 1 0.412301 0.370624 0.456097
25 2 0.422519 0.370268 0.458928
30 2 0.410738 0.398607 0.480876
26 2 0.42274 0.379408 0.458886
27 3 0.425669 0.385029 0.467782
28 2 0.424733 0.39517 0.468865
33 3 0.427632 0.411703 0.479528
35 2 0.442921 0.410848 0.470674
29 1 0.415087 0.397918 0.47141
36 3 0.44928 0.409129 0.478102
34 2 0.43645 0.415569 0.476267
4 1 0.478721 0.338886 0.51487
8 3 0.478207 0.343614 0.488879
7 2 0.47505 0.343468 0.496318
5 3 0.47194 0.335197 0.50765
6 3 0.473336 0.334543 0.498556
45 2 0.450862 0.375681 0.513621
46 3 0.455112 0.3764 0.505929
47 2 0.463074 0.3746 0.510854
32 1 0.425757 0.404837 0.484802
31 2 0.417483 0.403131 0.486448
44 3 0.444195 0.382121 0.513538
42 1 0.441371 0.3981 0.51425
41 1 0.444986 0.400266 0.505456
38 3 0.448014 0.412854 0.495397
48 1 0.470602 0.381393 0.510966
40 2 0.453582 0.402765 0.504104
39 2 0.451729 0.403205 0.495968
37 1 0.451204 0.416894 0.485539
3 3 0.474315 0.339141 0.524656
2 3 0.481865 0.343623 0.52996
1 2 0.487706 0.336524 0.533037
49 1 0.473398 0.378786 0.520619
43 2 0.446141 0.390918 0.519819
53 1 0.468625 0.392481 0.543121
50 2 0.469038 0.383032 0.529689
51 3 0.465967 0.392542 0.527782
52 1 0.467685 0.397562 0.534398
54 2 0.466142 0.397873 0.550295
55 2 0.458985 0.400964 0.546826
56 2 0.45638 0.410278 0.547625
57 1 0.459685 0.416543 0.540394
58 2 0.46788 0.415247 0.539441
59 3 0.472608 0.422899 0.542088
60 2 0.478243 0.426063 0.54883
61 2 0.475665 0.431714 0.555808
62 3 0.479923 0.426313 0.562969
63 1 0.483956 0.431053 0.571008
64 2 0.490394 0.437286 0.569227
66 1 0.501939 0.430635 0.560955
65 3 0.498897 0.434285 0.567803
68 3 0.515501 0.425342 0.558443
67 2 0.5097 0.425697 0.565213
71 1 0.534846 0.439673 0.559014
70 1 0.53075 0.43067 0.557975
69 2 0.523268 0.427396 0.56518
75 2 0.549719 0.446373 0.570907
77 2 0.541801 0.441837 0.583672
72 3 0.536472 0.447511 0.552798
76 3 0.549384 0.449014 0.58053
73 3 0.545149 0.448558 0.556447
74 3 0.542787 0.45011 0.565664
78 2 0.539749 0.443708 0.593435
79 3 0.54772 0.448661 0.590296
80 2 0.549527 0.452922 0.599486
81 1 0.555316 0.459963 0.601119
82 2 0.563878 0.456266 0.602719
84 3 0.57475 0.46286 0.610356
83 1 0.570185 0.463825 0.602127
85 1 0.57391 0.470704 0.611338
86 2 0.568335 0.468869 0.618937
100 1 0.504084 0.481291 0.635575
99 1 0.507042 0.477969 0.643716
98 1 0.51654 0.477763 0.641566
97 2 0.521606 0.477767 0.649525
94 2 0.54652 0.479772 0.653346
95 2 0.539151 0.47444 0.651327
96 3 0.531131 0.476672 0.646445
87 1 0.566192 0.475783 0.624517
88 2 0.56451 0.471058 0.63274
89 1 0.569909 0.477134 0.638237
90 3 0.572731 0.471581 0.644903
91 3 0.569926 0.476426 0.652177
93 1 0.553961 0.480019 0.648189
92 2 0.559736 0.477268 0.65457
ITEM: TIMESTEP
100
ITEM: NUMBER OF ATOMS
100
ITEM: BOX BOUNDS ff ff ff
0.0000000000000000e+00 1.5850000000000000e+02
0.0000000000000000e+00 1.5850000000000000e+02
0.0000000000000000e+00 1.5850000000000000e+02
ITEM: ATOMS id type xs ys zs
17 1 0.431961 0.33932 0.442966
18 3 0.434411 0.346869 0.437463
16 3 0.437734 0.331762 0.441297
15 2 0.446719 0.333555 0.444359
19 1 0.428229 0.354024 0.439387
20 1 0.41946 0.351678 0.436085
21 1 0.412961 0.357828 0.439697
22 3 0.411908 0.355932 0.449115
14 2 0.446808 0.334806 0.453943
13 2 0.455927 0.335814 0.456929
12 2 0.45609 0.338378 0.466235
11 3 0.465269 0.338601 0.469205
10 3 0.465855 0.342749 0.477901
9 2 0.47506 0.342546 0.480808
23 1 0.405998 0.362349 0.453245
24 1 0.410434 0.370907 0.453702
25 2 0.418103 0.370185 0.459523
30 2 0.419755 0.398323 0.478141
26 2 0.422933 0.378527 0.459484
27 3 0.417901 0.385274 0.464197
28 2 0.422541 0.393684 0.463335
33 3 0.426709 0.41795 0.478575
35 2 0.442398 0.41695 0.475079
29 1 0.418314 0.400406 0.468809
36 3 0.447051 0.411727 0.481751
34 2 0.435346 0.422325 0.479025
4 1 0.476038 0.339514 0.51405
8 3 0.476245 0.348052 0.488652
7 2 0.471703 0.344342 0.496326
5 3 0.472476 0.333332 0.507543
6 3 0.475721 0.335923 0.498825
45 2 0.447684 0.374461 0.513991
46 3 0.456627 0.376709 0.511132
47 2 0.463051 0.371006 0.51552
32 1 0.425367 0.411378 0.485566
31 2 0.417621 0.405763 0.483979
44 3 0.441889 0.381857 0.511797
42 1 0.439851 0.397404 0.514756
41 1 0.442908 0.400311 0.506068
38 3 0.450966 0.414473 0.496683
48 1 0.471922 0.374149 0.513332
40 2 0.452361 0.402339 0.506358
39 2 0.455016 0.405789 0.497755
37 1 0.451938 0.417631 0.487619
3 3 0.47328 0.337007 0.522951
2 3 0.477322 0.343044 0.529306
1 2 0.486921 0.34201 0.529068
49 1 0.478021 0.371793 0.520437
43 2 0.444524 0.389355 0.517304
53 1 0.463164 0.389394 0.534352
50 2 0.475473 0.376688 0.528379
51 3 0.476637 0.386179 0.526908
52 1 0.472657 0.391163 0.534167
54 2 0.458897 0.39484 0.54107
55 2 0.45887 0.404049 0.538189
56 2 0.455192 0.409557 0.545213
57 1 0.454947 0.418788 0.542342
58 2 0.463809 0.421987 0.540116
59 3 0.467082 0.42847 0.546516
60 2 0.469948 0.424244 0.554721
61 2 0.473585 0.430976 0.56059
62 3 0.4771 0.426852 0.568585
63 1 0.481282 0.433641 0.574025
64 2 0.488981 0.437167 0.56937
66 1 0.503178 0.433823 0.563516
65 3 0.496142 0.430688 0.569317
68 3 0.517144 0.430495 0.55735
67 2 0.510665 0.427766 0.563944
71 1 0.53111 0.438559 0.552104
70 1 0.531759 0.428926 0.552145
69 2 0.525428 0.425748 0.558676
75 2 0.551733 0.447548 0.566983
77 2 0.544171 0.444331 0.580438
72 3 0.53851 0.442575 0.547396
76 3 0.549148 0.45104 0.575593
73 3 0.54629 0.442402 0.553116
74 3 0.544031 0.44708 0.561253
78 2 0.542858 0.447548 0.589427
79 3 0.551455 0.450674 0.592458
80 2 0.551205 0.453512 0.60166
81 1 0.559146 0.458758 0.603186
82 2 0.566964 0.453643 0.600695
84 3 0.577005 0.460537 0.610858
83 1 0.575084 0.458863 0.601544
85 1 0.575813 0.46989 0.612962
86 2 0.57414 0.4706 0.622424
100 1 0.507157 0.483927 0.635564
99 1 0.511487 0.482251 0.644028
98 1 0.520018 0.478012 0.64248
97 2 0.52437 0.476311 0.650927
94 2 0.540199 0.478622 0.661832
95 2 0.537445 0.470349 0.657629
96 3 0.532889 0.472075 0.649272
87 1 0.571171 0.479528 0.624527
88 2 0.566725 0.479228 0.633078
89 1 0.573049 0.477605 0.640182
90 3 0.568076 0.474721 0.647927
91 3 0.561073 0.481116 0.649706
93 1 0.547037 0.48294 0.656527
92 2 0.554951 0.477413 0.656178
ITEM: TIMESTEP
200
ITEM: NUMBER OF ATOMS
100
ITEM: BOX BOUNDS ff ff ff
0.0000000000000000e+00 1.5850000000000000e+02
0.0000000000000000e+00 1.5850000000000000e+02
0.0000000000000000e+00 1.5850000000000000e+02
ITEM: ATOMS id type xs ys zs
17 1 0.431491 0.336522 0.444733
18 3 0.433211 0.344136 0.439038
16 3 0.437767 0.329409 0.442891
15 2 0.446681 0.332068 0.445513
19 1 0.427172 0.351271 0.441444
20 1 0.418142 0.348911 0.438974
21 1 0.412117 0.355709 0.44224
22 3 0.411578 0.355063 0.451862
14 2 0.447025 0.333501 0.455061
13 2 0.455895 0.336364 0.457572
12 2 0.455896 0.33909 0.466834
11 3 0.464752 0.342006 0.469317
10 3 0.464508 0.345938 0.478129
9 2 0.473356 0.348992 0.480517
23 1 0.406466 0.362448 0.455403
24 1 0.411687 0.370542 0.454717
25 2 0.419259 0.36995 0.46069
30 2 0.420876 0.401512 0.473215
26 2 0.424932 0.377661 0.459507
27 3 0.420303 0.38562 0.462406
28 2 0.425909 0.393285 0.460693
33 3 0.429185 0.419797 0.473588
35 2 0.444597 0.419685 0.478142
29 1 0.421445 0.401341 0.463565
36 3 0.444901 0.414421 0.486239
34 2 0.436457 0.424912 0.477448
4 1 0.475274 0.342553 0.513529
8 3 0.472987 0.353991 0.488773
7 2 0.470922 0.348181 0.496201
5 3 0.476341 0.336932 0.505754
6 3 0.478452 0.34244 0.498108
45 2 0.448797 0.371612 0.51223
46 3 0.457784 0.374286 0.509963
47 2 0.464108 0.36817 0.513923
32 1 0.423592 0.415598 0.480287
31 2 0.416929 0.409789 0.476324
44 3 0.44294 0.379187 0.511046
42 1 0.439392 0.393482 0.51701
41 1 0.441599 0.398569 0.509113
38 3 0.445151 0.415122 0.501954
48 1 0.473026 0.371398 0.512111
40 2 0.45021 0.402813 0.510192
39 2 0.451919 0.408255 0.50241
37 1 0.44613 0.420247 0.493837
3 3 0.472682 0.337153 0.521099
2 3 0.471678 0.342775 0.528874
1 2 0.480296 0.346294 0.531437
49 1 0.478994 0.368703 0.519212
43 2 0.445168 0.385786 0.517749
53 1 0.464434 0.385878 0.533827
50 2 0.476475 0.373386 0.527286
51 3 0.477763 0.382887 0.526046
52 1 0.4739 0.387756 0.533438
54 2 0.460184 0.391482 0.540434
55 2 0.459888 0.400576 0.537214
56 2 0.455796 0.406206 0.543899
57 1 0.455293 0.415293 0.540634
58 2 0.464114 0.4188 0.538794
59 3 0.466555 0.425773 0.545047
60 2 0.469042 0.422109 0.55363
61 2 0.471743 0.429289 0.55948
62 3 0.475076 0.425659 0.567791
63 1 0.478554 0.432844 0.57323
64 2 0.486109 0.43681 0.568709
66 1 0.500464 0.434172 0.562905
65 3 0.493648 0.430771 0.568829
68 3 0.514582 0.4316 0.556654
67 2 0.508299 0.42856 0.563316
71 1 0.529468 0.439722 0.551311
70 1 0.529038 0.430089 0.550792
69 2 0.52299 0.426972 0.557634
75 2 0.554769 0.446271 0.560085
77 2 0.550823 0.443043 0.574884
72 3 0.535933 0.44324 0.545059
76 3 0.554871 0.449648 0.569123
73 3 0.544894 0.441927 0.54843
74 3 0.545693 0.446572 0.556849
78 2 0.549143 0.446747 0.583634
79 3 0.557319 0.449943 0.587651
80 2 0.555199 0.453311 0.596441
81 1 0.562638 0.458211 0.600167
82 2 0.570177 0.452462 0.601995
84 3 0.573139 0.460426 0.615101
83 1 0.576803 0.457802 0.60656
85 1 0.577953 0.467951 0.61875
86 2 0.573542 0.470593 0.626919
100 1 0.50522 0.484655 0.637805
99 1 0.509841 0.48344 0.646192
98 1 0.518472 0.479447 0.644548
97 2 0.52312 0.478236 0.652921
94 2 0.539338 0.481173 0.663294
95 2 0.536416 0.472757 0.659531
96 3 0.531681 0.47412 0.651217
87 1 0.576241 0.479476 0.629562
88 2 0.571017 0.482059 0.637266
89 1 0.574705 0.478179 0.645304
90 3 0.56755 0.475257 0.651094
91 3 0.561155 0.482345 0.652533
93 1 0.546494 0.484916 0.657981
92 2 0.554029 0.478878 0.658048
ITEM: TIMESTEP
300
ITEM: NUMBER OF ATOMS
100
ITEM: BOX BOUNDS ff ff ff
0.0000000000000000e+00 1.5850000000000000e+02
0.0000000000000000e+00 1.5850000000000000e+02
0.0000000000000000e+00 1.5850000000000000e+02
ITEM: ATOMS id type xs ys zs
17 1 0.43113 0.334417 0.446681
18 3 0.431315 0.341158 0.43976
16 3 0.437977 0.327769 0.445207
15 2 0.446593 0.331639 0.447215
19 1 0.426024 0.348672 0.442717
20 1 0.416955 0.345847 0.444418
21 1 0.412112 0.353084 0.448594
22 3 0.415849 0.354766 0.457351
14 2 0.446778 0.334287 0.456506
13 2 0.455204 0.338527 0.45852
12 2 0.454953 0.341967 0.467529
11 3 0.463449 0.346026 0.469618
10 3 0.463042 0.349885 0.478451
9 2 0.471634 0.353653 0.480728
23 1 0.411219 0.362074 0.461662
24 1 0.413364 0.370418 0.45729
25 2 0.42269 0.372503 0.458716
30 2 0.424529 0.4063 0.465011
26 2 0.425046 0.380582 0.453982
27 3 0.42098 0.38828 0.458157
28 2 0.423118 0.396132 0.452953
33 3 0.434018 0.420868 0.473239
35 2 0.446592 0.418504 0.482955
29 1 0.419425 0.404016 0.457134
36 3 0.443788 0.412599 0.490068
34 2 0.439578 0.424601 0.48024
4 1 0.473524 0.344844 0.513048
8 3 0.470996 0.357866 0.48938
7 2 0.469419 0.351217 0.496204
5 3 0.475787 0.339923 0.505059
6 3 0.477474 0.346176 0.497906
45 2 0.450113 0.369141 0.511614
46 3 0.458032 0.374146 0.509323
47 2 0.465854 0.36924 0.512099
32 1 0.42591 0.416903 0.476707
31 2 0.420437 0.413902 0.469339
44 3 0.442465 0.374991 0.51102
42 1 0.435595 0.387611 0.517659
41 1 0.437847 0.394019 0.510804
38 3 0.440088 0.411701 0.505318
48 1 0.473763 0.374188 0.509594
40 2 0.445192 0.399493 0.513873
39 2 0.447545 0.405793 0.50696
37 1 0.44239 0.417716 0.498138
3 3 0.471663 0.338729 0.520273
2 3 0.469101 0.34374 0.528117
1 2 0.476554 0.349078 0.531129
49 1 0.48131 0.371086 0.514757
43 2 0.442711 0.381144 0.518469
53 1 0.466913 0.382198 0.533679
50 2 0.479839 0.373591 0.523969
51 3 0.479687 0.383227 0.524626
52 1 0.475824 0.385875 0.533062
54 2 0.462038 0.386696 0.540667
55 2 0.460196 0.395685 0.537689
56 2 0.456135 0.400745 0.544818
57 1 0.454514 0.40976 0.541751
58 2 0.462737 0.413629 0.53845
59 3 0.46499 0.421689 0.543287
60 2 0.46821 0.419481 0.552119
61 2 0.47078 0.427544 0.556746
62 3 0.47454 0.425252 0.565344
63 1 0.47751 0.433274 0.569823
64 2 0.484841 0.437179 0.564899
66 1 0.499668 0.435266 0.560046
65 3 0.492719 0.431646 0.56568
68 3 0.514459 0.433469 0.555034
67 2 0.507748 0.430092 0.561094
71 1 0.530495 0.441505 0.551291
70 1 0.529335 0.431992 0.550093
69 2 0.522791 0.428797 0.556433
75 2 0.556566 0.445122 0.560064
77 2 0.552962 0.441466 0.574874
72 3 0.537241 0.444908 0.545274
76 3 0.557092 0.44811 0.569219
73 3 0.546047 0.442482 0.548421
74 3 0.547466 0.446409 0.557124
78 2 0.551003 0.445267 0.58352
79 3 0.558897 0.449321 0.5873
80 2 0.556583 0.452708 0.596025
81 1 0.563477 0.458578 0.599349
82 2 0.571817 0.45388 0.600604
84 3 0.573922 0.46126 0.614093
83 1 0.577737 0.459842 0.605345
85 1 0.577886 0.4689 0.618448
86 2 0.573321 0.470063 0.626866
100 1 0.506132 0.491573 0.640815
99 1 0.510644 0.489044 0.648965
98 1 0.518742 0.484268 0.646786
97 2 0.523217 0.481612 0.654915
94 2 0.53964 0.480996 0.665438
95 2 0.535575 0.473597 0.660725
96 3 0.531148 0.476591 0.65267
87 1 0.575128 0.478771 0.630605
88 2 0.569675 0.479733 0.638509
89 1 0.573553 0.474834 0.645867
90 3 0.566576 0.47242 0.652085
91 3 0.561264 0.480149 0.65436
93 1 0.547287 0.484258 0.660517
92 2 0.553875 0.477234 0.65984
ITEM: TIMESTEP
400
ITEM: NUMBER OF ATOMS
100
ITEM: BOX BOUNDS ff ff ff
0.0000000000000000e+00 1.5850000000000000e+02
0.0000000000000000e+00 1.5850000000000000e+02
0.0000000000000000e+00 1.5850000000000000e+02
ITEM: ATOMS id type xs ys zs
17 1 0.429885 0.335267 0.44752
18 3 0.430486 0.342175 0.440784
16 3 0.43557 0.327776 0.445302
15 2 0.444796 0.33039 0.446446
19 1 0.42581 0.349996 0.443966
20 1 0.416552 0.347816 0.445609
21 1 0.412297 0.355332 0.449911
22 3 0.416657 0.356892 0.458395
14 2 0.446238 0.332694 0.455715
13 2 0.455327 0.33563 0.457069
12 2 0.456019 0.339264 0.465976
11 3 0.464979 0.34244 0.467618
10 3 0.46505 0.347074 0.476084
9 2 0.47398 0.350129 0.478105
23 1 0.412707 0.364477 0.462882
24 1 0.414416 0.372571 0.457894
25 2 0.42386 0.374603 0.457864
30 2 0.423592 0.407335 0.464537
26 2 0.425254 0.382668 0.452767
27 3 0.421023 0.390041 0.457342
28 2 0.421803 0.398061 0.452026
33 3 0.433838 0.420431 0.47357
35 2 0.445783 0.413466 0.481592
29 1 0.417988 0.405454 0.456917
36 3 0.443351 0.408804 0.489703
34 2 0.440634 0.421574 0.480373
4 1 0.474015 0.344845 0.511192
8 3 0.473783 0.355469 0.486145
7 2 0.471223 0.350042 0.493706
5 3 0.475496 0.338844 0.503776
6 3 0.478332 0.34396 0.496102
45 2 0.448901 0.366934 0.511739
46 3 0.456302 0.37207 0.508293
47 2 0.464636 0.367747 0.510466
32 1 0.425787 0.416411 0.477095
31 2 0.419782 0.414472 0.469799
44 3 0.44132 0.372849 0.512522
42 1 0.436823 0.386296 0.519784
41 1 0.438857 0.392116 0.512345
38 3 0.443859 0.409063 0.505412
48 1 0.47191 0.373393 0.507542
40 2 0.447555 0.396118 0.513673
39 2 0.449812 0.401477 0.505968
37 1 0.44578 0.414095 0.4974
3 3 0.470513 0.339962 0.518739
2 3 0.468696 0.346105 0.525966
1 2 0.477 0.349831 0.529164
49 1 0.479728 0.371649 0.512935
43 2 0.443067 0.378935 0.51983
53 1 0.464365 0.382922 0.531686
50 2 0.477916 0.374561 0.521968
51 3 0.4768 0.38416 0.522179
52 1 0.473194 0.386733 0.530754
54 2 0.460545 0.385487 0.540167
55 2 0.459108 0.395027 0.540263
56 2 0.456613 0.397799 0.549162
57 1 0.456499 0.407436 0.549504
58 2 0.464951 0.410574 0.546067
59 3 0.466017 0.420036 0.547579
60 2 0.468355 0.421496 0.556825
61 2 0.470717 0.430771 0.558006
62 3 0.474726 0.432003 0.566701
63 1 0.478455 0.440895 0.567262
64 2 0.485659 0.441759 0.560883
66 1 0.499997 0.436889 0.556713
65 3 0.493095 0.436124 0.563413
68 3 0.51456 0.432974 0.552603
67 2 0.507635 0.431518 0.559161
71 1 0.530081 0.441165 0.549754
70 1 0.529698 0.431526 0.549199
69 2 0.522752 0.428588 0.555217
75 2 0.555384 0.447426 0.559377
77 2 0.552972 0.442021 0.573895
72 3 0.536836 0.444824 0.543907
76 3 0.555416 0.449802 0.568727
73 3 0.545638 0.443322 0.547558
74 3 0.546227 0.447333 0.556325
78 2 0.551088 0.444547 0.583011
79 3 0.558644 0.449126 0.586892
80 2 0.556447 0.451259 0.596035
81 1 0.562974 0.457287 0.599801
82 2 0.571639 0.453105 0.60051
84 3 0.573588 0.460286 0.614127
83 1 0.577358 0.459222 0.60531
85 1 0.577526 0.46776 0.618793
86 2 0.572826 0.46868 0.627169
100 1 0.50766 0.498577 0.64535
99 1 0.512296 0.495094 0.653065
98 1 0.519161 0.488959 0.650175
97 2 0.523752 0.485413 0.657887
94 2 0.540429 0.482072 0.667247
95 2 0.535077 0.475448 0.662666
96 3 0.530601 0.479259 0.654991
87 1 0.574924 0.477082 0.631422
88 2 0.569265 0.47786 0.639194
89 1 0.572538 0.472112 0.646227
90 3 0.565375 0.47034 0.652443
91 3 0.56125 0.47861 0.655205
93 1 0.548183 0.48437 0.661959
92 2 0.553692 0.476526 0.660824
ITEM: TIMESTEP
500
ITEM: NUMBER OF ATOMS
100
ITEM: BOX BOUNDS ff ff ff
0.0000000000000000e+00 1.5850000000000000e+02
0.0000000000000000e+00 1.5850000000000000e+02
0.0000000000000000e+00 1.5850000000000000e+02
ITEM: ATOMS id type xs ys zs
17 1 0.428826 0.335522 0.449083
18 3 0.42909 0.341361 0.441392
16 3 0.434171 0.327613 0.447589
15 2 0.443541 0.329906 0.448027
19 1 0.424793 0.349676 0.443748
20 1 0.415585 0.348002 0.446103
21 1 0.411663 0.356068 0.449671
22 3 0.416295 0.358429 0.457817
14 2 0.445533 0.333335 0.456838
13 2 0.454914 0.335477 0.457522
12 2 0.45645 0.340029 0.465887
11 3 0.465872 0.341781 0.467009
10 3 0.467078 0.347132 0.474949
9 2 0.476481 0.348186 0.476873
23 1 0.412257 0.366184 0.461923
24 1 0.413714 0.374046 0.456504
25 2 0.423138 0.37614 0.456088
30 2 0.424729 0.407733 0.465224
26 2 0.4243 0.384421 0.451273
27 3 0.420711 0.391614 0.456612
28 2 0.421612 0.400005 0.451931
33 3 0.43679 0.418536 0.474609
35 2 0.448636 0.41192 0.483377
29 1 0.418663 0.407122 0.457737
36 3 0.4447 0.40669 0.490493
34 2 0.443578 0.419944 0.481391
4 1 0.474033 0.344734 0.510277
8 3 0.477518 0.354024 0.484496
7 2 0.473436 0.350055 0.492299
5 3 0.474127 0.338477 0.502928
6 3 0.478582 0.342473 0.495355
45 2 0.445257 0.364546 0.509576
46 3 0.45236 0.370404 0.506699
47 2 0.460967 0.366329 0.508159
32 1 0.428335 0.415677 0.478322
31 2 0.4219 0.414775 0.471182
44 3 0.437212 0.369845 0.510149
42 1 0.431601 0.382838 0.517392
41 1 0.434884 0.389259 0.510967
38 3 0.44115 0.406351 0.505807
48 1 0.467776 0.372429 0.505043
40 2 0.44307 0.39318 0.514293
39 2 0.446948 0.398825 0.507494
37 1 0.444899 0.411727 0.498723
3 3 0.469392 0.340857 0.517797
2 3 0.469234 0.34718 0.525099
1 2 0.478252 0.348762 0.528146
49 1 0.476344 0.369963 0.508736
43 2 0.437905 0.375542 0.517931
53 1 0.466035 0.379713 0.532063
50 2 0.476216 0.371843 0.518202
51 3 0.47553 0.381382 0.519547
52 1 0.474457 0.383274 0.528948
54 2 0.464871 0.382133 0.541333
55 2 0.464027 0.391725 0.541925
56 2 0.463879 0.394483 0.551173
57 1 0.463303 0.404109 0.551539
58 2 0.470923 0.407853 0.546946
59 3 0.47069 0.417493 0.547364
60 2 0.47246 0.420403 0.556392
61 2 0.472902 0.430044 0.556603
62 3 0.475671 0.432934 0.5654
63 1 0.476882 0.442522 0.565546
64 2 0.484174 0.444969 0.5597
66 1 0.499503 0.44306 0.556676
65 3 0.492487 0.441394 0.563086
68 3 0.514411 0.439718 0.552859
67 2 0.507583 0.438671 0.559596
71 1 0.531648 0.444997 0.547958
70 1 0.5291 0.435715 0.548748
69 2 0.522318 0.434894 0.555563
75 2 0.557136 0.443777 0.557956
77 2 0.551302 0.442249 0.572415
72 3 0.539044 0.445984 0.541819
76 3 0.557491 0.447252 0.566945
73 3 0.547063 0.442299 0.545742
74 3 0.548908 0.446903 0.554012
78 2 0.549037 0.447257 0.580338
79 3 0.556971 0.449698 0.58525
80 2 0.554163 0.454526 0.593114
81 1 0.561756 0.458326 0.597701
82 2 0.567773 0.451411 0.600729
84 3 0.56976 0.458594 0.614373
83 1 0.574348 0.45554 0.606458
85 1 0.57546 0.464184 0.619794
86 2 0.570417 0.466641 0.627635
100 1 0.51246 0.509395 0.653371
99 1 0.516603 0.504043 0.660254
98 1 0.521541 0.496821 0.656177
97 2 0.525702 0.491457 0.66304
94 2 0.541837 0.483383 0.670237
95 2 0.534716 0.478698 0.665667
96 3 0.53065 0.484273 0.658897
87 1 0.574848 0.473573 0.632677
88 2 0.569331 0.475462 0.640362
89 1 0.57036 0.468369 0.646828
90 3 0.562567 0.467939 0.652508
91 3 0.560616 0.476591 0.656316
93 1 0.549499 0.484412 0.664432
92 2 0.552842 0.475697 0.661963
ITEM: TIMESTEP
600
ITEM: NUMBER OF ATOMS
100
ITEM: BOX BOUNDS ff ff ff
0.0000000000000000e+00 1.5850000000000000e+02
0.0000000000000000e+00 1.5850000000000000e+02
0.0000000000000000e+00 1.5850000000000000e+02
ITEM: ATOMS id type xs ys zs
17 1 0.426768 0.33793 0.449498
18 3 0.427794 0.344308 0.442315
16 3 0.431882 0.329928 0.447718
15 2 0.441334 0.331808 0.448322
19 1 0.422919 0.352313 0.444614
20 1 0.413462 0.350383 0.444967
21 1 0.408806 0.358084 0.448461
22 3 0.411088 0.359177 0.45779
14 2 0.443523 0.334439 0.457354
13 2 0.452988 0.336169 0.458046
12 2 0.454864 0.339804 0.466784
11 3 0.46438 0.340962 0.467878
10 3 0.466048 0.345232 0.47637
9 2 0.475552 0.345793 0.477987
23 1 0.407679 0.367592 0.461084
24 1 0.412719 0.374803 0.457103
25 2 0.421837 0.374445 0.460277
30 2 0.427979 0.407574 0.464219
26 2 0.427174 0.381006 0.455636
27 3 0.424088 0.389885 0.457825
28 2 0.429538 0.396311 0.453129
33 3 0.437182 0.417183 0.476794
35 2 0.446885 0.416996 0.489313
29 1 0.426519 0.405299 0.454948
36 3 0.443321 0.408926 0.493243
34 2 0.439643 0.421675 0.484983
4 1 0.474616 0.342346 0.511272
8 3 0.477042 0.350956 0.486002
7 2 0.473514 0.346347 0.49372
5 3 0.475858 0.335429 0.504648
6 3 0.479565 0.339432 0.496689
45 2 0.445626 0.362127 0.508322
46 3 0.451878 0.368724 0.505086
47 2 0.460911 0.365393 0.50556
32 1 0.428255 0.419874 0.474289
31 2 0.426418 0.417046 0.465248
44 3 0.436867 0.366175 0.508432
42 1 0.428614 0.378096 0.514683
41 1 0.431127 0.385338 0.508802
38 3 0.433265 0.403487 0.50425
48 1 0.46679 0.372038 0.501739
40 2 0.437018 0.391257 0.513653
39 2 0.440466 0.398215 0.507912
37 1 0.437003 0.411379 0.500134
3 3 0.470221 0.338693 0.519046
2 3 0.468265 0.345801 0.525284
1 2 0.476488 0.349517 0.528704
49 1 0.475992 0.369844 0.503656
43 2 0.436214 0.372266 0.515906
53 1 0.470326 0.376674 0.529487
50 2 0.477579 0.370972 0.513111
51 3 0.476506 0.380292 0.5154
52 1 0.47738 0.381451 0.524936
54 2 0.47083 0.378709 0.538903
55 2 0.468762 0.388063 0.540043
56 2 0.470308 0.390798 0.549164
57 1 0.468238 0.400196 0.549896
58 2 0.473717 0.405059 0.543611
59 3 0.471975 0.414527 0.544277
60 2 0.474701 0.417599 0.552999
61 2 0.474276 0.427228 0.553316
62 3 0.477402 0.430187 0.56196
63 1 0.478732 0.43975 0.56188
64 2 0.486063 0.441862 0.55596
66 1 0.5013 0.439508 0.552974
65 3 0.494289 0.438193 0.559469
68 3 0.51638 0.437172 0.549428
67 2 0.509588 0.435688 0.556128
71 1 0.531897 0.4458 0.544974
70 1 0.531671 0.436185 0.545951
69 2 0.524939 0.433929 0.552497
75 2 0.556132 0.452042 0.556048
77 2 0.549587 0.449453 0.57001
72 3 0.539042 0.448578 0.539089
76 3 0.555194 0.455514 0.565004
73 3 0.547546 0.447505 0.543522
74 3 0.547615 0.452825 0.551589
78 2 0.547644 0.453024 0.578766
79 3 0.555711 0.454022 0.583983
80 2 0.553174 0.457221 0.592733
81 1 0.560867 0.459543 0.598102
82 2 0.566157 0.451776 0.600357
84 3 0.567311 0.456438 0.615206
83 1 0.572412 0.454285 0.607287
85 1 0.572841 0.460113 0.622225
86 2 0.567021 0.462358 0.629611
100 1 0.527258 0.524338 0.665576
99 1 0.529277 0.516714 0.671151
98 1 0.529971 0.508778 0.665692
97 2 0.531898 0.501119 0.671266
94 2 0.542964 0.485332 0.675237
95 2 0.534206 0.48535 0.671125
96 3 0.53276 0.493249 0.66572
87 1 0.571695 0.467251 0.636502
88 2 0.565281 0.470027 0.643195
89 1 0.562612 0.462537 0.648686
90 3 0.554922 0.464895 0.654074
91 3 0.556624 0.472884 0.659214
93 1 0.549955 0.483616 0.668758
92 2 0.549048 0.474775 0.664932
ITEM: TIMESTEP
700
ITEM: NUMBER OF ATOMS
100
ITEM: BOX BOUNDS ff ff ff
0.0000000000000000e+00 1.5850000000000000e+02
0.0000000000000000e+00 1.5850000000000000e+02
0.0000000000000000e+00 1.5850000000000000e+02
ITEM: ATOMS id type xs ys zs
17 1 0.425979 0.337366 0.450347
18 3 0.427317 0.343612 0.4431
16 3 0.430772 0.329143 0.448682
15 2 0.440301 0.330674 0.449102
19 1 0.422824 0.351873 0.445265
20 1 0.413275 0.350459 0.445347
21 1 0.408915 0.35858 0.448213
22 3 0.410617 0.359969 0.457623
14 2 0.442753 0.3336 0.457974
13 2 0.45232 0.334748 0.458503
12 2 0.45451 0.338933 0.466916
11 3 0.464089 0.339525 0.46789
10 3 0.466101 0.344685 0.475793
9 2 0.47562 0.344634 0.477424
23 1 0.407284 0.368625 0.460303
24 1 0.412977 0.37547 0.456571
25 2 0.421617 0.375106 0.460871
30 2 0.428269 0.407998 0.463213
26 2 0.427681 0.381206 0.456507
27 3 0.424619 0.390296 0.457565
28 2 0.430845 0.396151 0.453083
33 3 0.435714 0.417498 0.476776
35 2 0.44466 0.417663 0.489723
29 1 0.428035 0.405344 0.453935
36 3 0.442031 0.409186 0.493522
34 2 0.437038 0.421678 0.485374
4 1 0.473637 0.343583 0.510904
8 3 0.477599 0.350542 0.4848
7 2 0.473305 0.34737 0.492844
5 3 0.473091 0.336627 0.504235
6 3 0.477737 0.33951 0.49628
45 2 0.446966 0.362011 0.505931
46 3 0.453287 0.36902 0.503932
47 2 0.462296 0.365728 0.504846
32 1 0.427319 0.420376 0.472991
31 2 0.426869 0.417529 0.463784
44 3 0.438149 0.365917 0.506069
42 1 0.429427 0.376801 0.513481
41 1 0.431832 0.384457 0.508108
38 3 0.433317 0.402615 0.50505
48 1 0.46846 0.372569 0.501945
40 2 0.438004 0.389931 0.513133
39 2 0.440964 0.397423 0.507816
37 1 0.436293 0.410902 0.5011
3 3 0.468578 0.341029 0.518716
2 3 0.468985 0.348118 0.525259
1 2 0.478082 0.349161 0.528306
49 1 0.477473 0.370034 0.504282
43 2 0.43711 0.371007 0.514213
53 1 0.469539 0.376211 0.529567
50 2 0.478431 0.370619 0.513864
51 3 0.477634 0.379867 0.516518
52 1 0.477463 0.38054 0.526137
54 2 0.468879 0.378077 0.539007
55 2 0.467476 0.387565 0.540039
56 2 0.467906 0.390084 0.549343
57 1 0.466894 0.399663 0.549907
58 2 0.473807 0.403779 0.544567
59 3 0.473085 0.413393 0.544982
60 2 0.475447 0.416417 0.553831
61 2 0.475338 0.426064 0.554001
62 3 0.478503 0.429171 0.562579
63 1 0.479192 0.438804 0.562513
64 2 0.486051 0.441531 0.55628
66 1 0.501395 0.440687 0.552769
65 3 0.494701 0.438547 0.559379
68 3 0.516595 0.439001 0.548917
67 2 0.509902 0.437134 0.555613
71 1 0.532867 0.44692 0.544665
70 1 0.531863 0.437328 0.545246
69 2 0.525038 0.435289 0.551758
75 2 0.557179 0.450199 0.556765
77 2 0.549653 0.449039 0.570397
72 3 0.540441 0.449225 0.539122
76 3 0.556339 0.454055 0.565568
73 3 0.548645 0.44705 0.543726
74 3 0.549048 0.45211 0.551944
78 2 0.547273 0.453606 0.578555
79 3 0.55497 0.454564 0.584289
80 2 0.552084 0.458839 0.592439
81 1 0.559615 0.460744 0.598165
82 2 0.563974 0.452576 0.600896
84 3 0.565407 0.457689 0.615546
83 1 0.570358 0.454759 0.607797
85 1 0.571309 0.461186 0.622336
86 2 0.565854 0.463867 0.629831
100 1 0.530636 0.524501 0.667214
99 1 0.530803 0.516218 0.672163
98 1 0.532435 0.508898 0.666092
97 2 0.532577 0.500593 0.671001
94 2 0.541912 0.484198 0.675307
95 2 0.534101 0.484914 0.669644
96 3 0.534105 0.493311 0.664848
87 1 0.571075 0.468635 0.636396
88 2 0.565162 0.471122 0.643602
89 1 0.562852 0.463258 0.648703
90 3 0.555173 0.465118 0.654246
91 3 0.556834 0.472802 0.659838
93 1 0.549818 0.482781 0.669924
92 2 0.548994 0.474378 0.665238
ITEM: TIMESTEP
800
ITEM: NUMBER OF ATOMS
100
ITEM: BOX BOUNDS ff ff ff
0.0000000000000000e+00 1.5850000000000000e+02
0.0000000000000000e+00 1.5850000000000000e+02
0.0000000000000000e+00 1.5850000000000000e+02
ITEM: ATOMS id type xs ys zs
17 1 0.424016 0.337155 0.452456
18 3 0.425854 0.3424 0.444555
16 3 0.428056 0.32841 0.451758
15 2 0.437685 0.329146 0.451875
19 1 0.422033 0.351186 0.445702
20 1 0.4124 0.350589 0.44557
21 1 0.408661 0.359222 0.447711
22 3 0.410146 0.36108 0.457076
14 2 0.440602 0.332858 0.4603
13 2 0.450239 0.33326 0.460487
12 2 0.453049 0.338101 0.468345
11 3 0.462674 0.337964 0.468969
10 3 0.465425 0.34362 0.476287
9 2 0.474957 0.34284 0.477632
23 1 0.407269 0.370062 0.459147
24 1 0.413561 0.376364 0.455422
25 2 0.421917 0.375693 0.460224
30 2 0.428775 0.408312 0.462761
26 2 0.428479 0.3815 0.456187
27 3 0.425641 0.39069 0.456969
28 2 0.432391 0.396377 0.453073
33 3 0.434375 0.418446 0.476879
35 2 0.442005 0.419113 0.490598
29 1 0.429598 0.405601 0.453535
36 3 0.440206 0.41009 0.493525
34 2 0.434389 0.422419 0.485677
4 1 0.473226 0.343683 0.511048
8 3 0.477683 0.348984 0.484555
7 2 0.473363 0.346674 0.492873
5 3 0.472281 0.336475 0.5047
6 3 0.477169 0.338656 0.496665
45 2 0.449494 0.362073 0.501812
46 3 0.455612 0.369519 0.501338
47 2 0.464583 0.366457 0.503054
32 1 0.426187 0.420653 0.472278
31 2 0.426875 0.417769 0.463095
44 3 0.440503 0.365507 0.501212
42 1 0.43 0.374655 0.508631
41 1 0.432082 0.383059 0.504359
38 3 0.431451 0.40146 0.503518
48 1 0.470824 0.373583 0.501198
40 2 0.437015 0.388547 0.510591
39 2 0.439439 0.396931 0.506473
37 1 0.433678 0.410396 0.500634
3 3 0.467935 0.341807 0.518898
2 3 0.468774 0.349109 0.525155
1 2 0.477892 0.34963 0.528281
49 1 0.479667 0.370932 0.504012
43 2 0.438136 0.369568 0.509648
53 1 0.470383 0.375876 0.529255
50 2 0.479985 0.37097 0.513656
51 3 0.479053 0.38007 0.516732
52 1 0.478461 0.380302 0.526356
54 2 0.4693 0.37743 0.53871
55 2 0.467863 0.386886 0.539965
56 2 0.468047 0.389186 0.549331
57 1 0.467108 0.39876 0.550045
58 2 0.474111 0.402867 0.544822
59 3 0.473503 0.412479 0.545334
60 2 0.47594 0.415388 0.554198
61 2 0.476049 0.42503 0.55442
62 3 0.479445 0.428005 0.562957
63 1 0.480414 0.437616 0.562898
64 2 0.487198 0.440161 0.556505
66 1 0.502447 0.439115 0.552679
65 3 0.495856 0.43699 0.5594
68 3 0.517624 0.437767 0.548673
67 2 0.511036 0.435666 0.555405
71 1 0.53327 0.446571 0.544338
70 1 0.532949 0.436936 0.545008
69 2 0.526248 0.434487 0.551506
75 2 0.556962 0.452085 0.556794
77 2 0.549168 0.450751 0.570271
72 3 0.540703 0.449388 0.538854
76 3 0.555657 0.456061 0.565487
73 3 0.548955 0.448011 0.54368
74 3 0.548794 0.453256 0.551794
78 2 0.546564 0.455203 0.578424
79 3 0.55419 0.456373 0.584215
80 2 0.55115 0.460515 0.592377
81 1 0.558602 0.462386 0.598217
82 2 0.563027 0.454196 0.600771