read_data	InitialFile.txt
Reading data file ...
  orthogonal box = (0 0 0) to (158.5 158.5 158.5)
  1 by 1 by 1 MPI processor grid
WARNING: Atom style in data file atomic differs from currently defined atom style molecular (src/src/read_data.cpp:621)
  reading atoms ...
  100 atoms
  scanning bonds ...
  1 = max bonds/atom
  scanning angles ...
  1 = max angles/atom
  scanning dihedrals ...
  1 = max dihedrals/atom
  reading bonds ...
  99 bonds
  reading angles ...
  98 angles
  reading dihedrals ...
  97 dihedrals
Finding 1-2 1-3 1-4 neighbors ...
  special bond factors lj:    0        0        0       
  special bond factors coul:  0        0        0       
     2 = max # of 1-2 neighbors
     2 = max # of 1-3 neighbors
     4 = max # of 1-4 neighbors
     6 = max # of special neighbors
  special bonds CPU = 0.006 seconds
  read_data CPU = 0.016 seconds

# Dreiding potential information
neighbor	0.4 bin
neigh_modify	every 10 one 10000

bond_style      harmonic
bond_coeff	1 350 1.53
bond_coeff	2 700 1.53

angle_style     harmonic
angle_coeff	1 60 109.5
angle_coeff	2 120 109.5

dihedral_style	multi/harmonic
dihedral_coeff	1 1.73 -4.49 0.776 6.99 0.0
dihedral_coeff	2 1.73 -4.49 0.776 6.99 0.0

pair_style	lj/cut 10.5


pair_coeff	1 1 0.112 4.01 10.5
pair_coeff	2 2 0.112 4.01 10.5
pair_coeff	3 3 0.112 4.01 10.5
pair_coeff	1 2 0.112 4.01 10.5
pair_coeff	1 3 0.112 4.01 10.5
pair_coeff	2 3 0.112 4.01 10.5

compute csym all centro/atom fcc
compute peratom all pe/atom



#####################################################
# Equilibration (Langevin dynamics at 5000 K)

velocity 	all create 5000.0 1231
fix		1 all nve/limit 0.05
fix		2 all langevin 5000.0 5000.0 10.0 904297
thermo_style	custom step temp
thermo          10000
timestep	1
run		1000000
Generated 0 of 3 mixed pair_coeff terms from geometric mixing rule
Neighbor list info ...
  update: every = 10 steps, delay = 0 steps, check = yes
  max neighbors/atom: 10000, page size: 100000
  master list distance cutoff = 10.9
  ghost atom cutoff = 10.9
  binsize = 5.45, bins = 30 30 30
  2 neighbor lists, perpetual/occasional/extra = 1 1 0
  (1) pair lj/cut, perpetual
      attributes: half, newton on
      pair build: half/bin/newton
      stencil: half/bin/3d
      bin: standard
  (2) compute centro/atom, occasional
      attributes: full, newton on
      pair build: full/bin
      stencil: full/bin/3d
      bin: standard
Per MPI rank memory allocation (min/avg/max) = 8.15 | 8.15 | 8.15 Mbytes
   Step          Temp     
         0   5000         
     10000   4229.965     
     20000   4473.9087    
     30000   4491.1789    
     40000   5283.7603    
     50000   4675.3794    
     60000   4223.061     
     70000   4576.0441    
     80000   4537.2012    
     90000   4574.7664    
    100000   5080.4748    
    110000   4484.455     
    120000   4860.8605    
    130000   4252.0273    
    140000   4644.6282    
    150000   4709.3773    
    160000   4394.8821    
    170000   4639.5168    
    180000   4866.8969    
    190000   4244.93      
    200000   5202.3467    
    210000   5163.9793    
    220000   4934.2121    
    230000   5034.4259    
    240000   5491.9144    
    250000   4630.2699    
    260000   4120.5122    
    270000   4276.496     
    280000   4313.9609    
    290000   4810.536     
    300000   4717.9672    
    310000   4415.9475    
    320000   4851.6134    
    330000   4146.2527    
    340000   4598.5323    
    350000   4671.494     
    360000   4642.9793    
    370000   5100.572     
    380000   4888.248     
    390000   4835.6793    
    400000   4495.8387    
    410000   4365.3366    
    420000   4548.8509    
    430000   4721.2335    
    440000   5063.7005    
    450000   4807.1575    
    460000   4401.5434    
    470000   5266.7006    
    480000   4976.1775    
    490000   4987.734     
    500000   4748.6324    
    510000   4963.6238    
    520000   4343.453     
    530000   4066.3058    
    540000   4780.0764    
    550000   4408.7333    
    560000   5372.3094    
    570000   4862.1167    
    580000   4654.2082    
    590000   4733.313     
    600000   4568.5292    
    610000   5272.3128    
    620000   4592.7709    
    630000   4672.9295    
    640000   4796.2654    
    650000   4828.3338    
    660000   5387.3169    
    670000   5024.9902    
    680000   5101.8625    
    690000   4496.0517    
    700000   4605.144     
    710000   5447.0725    
    720000   4331.5776    
    730000   4737.4783    
    740000   4575.1241    
    750000   4668.6422    
    760000   4286.6495    
    770000   4566.5539    
    780000   4688.4494    
    790000   4977.0243    
    800000   4954.3108    
    810000   4791.4496    
    820000   5191.0876    
    830000   4458.3946    
    840000   5066.7669    
    850000   4730.1168    
    860000   4801.6282    
    870000   5275.9257    
    880000   4023.1517    
    890000   4376.1754    
    900000   5018.8526    
    910000   3986.5709    
    920000   4830.3348    
    930000   4582.842     
    940000   5034.8803    
    950000   4949.9187    
    960000   4634.1295    
    970000   4293.7174    
    980000   4601.1598    
    990000   4712.9763    
   1000000   3743.7999    
Loop time of 35.1567 on 1 procs for 1000000 steps with 100 atoms

Performance: 2457.569 ns/day, 0.010 hours/ns, 28444.086 timesteps/s, 2.844 Matom-step/s
94.4% CPU use with 1 MPI tasks x no OpenMP threads

MPI task timing breakdown:
Section |  min time  |  avg time  |  max time  |%varavg| %total
---------------------------------------------------------------
Pair    | 11.47      | 11.47      | 11.47      |   0.0 | 32.63
Bond    | 13.3       | 13.3       | 13.3       |   0.0 | 37.83
Neigh   | 6.419      | 6.419      | 6.419      |   0.0 | 18.26
Comm    | 0.23259    | 0.23259    | 0.23259    |   0.0 |  0.66
Output  | 0.0020824  | 0.0020824  | 0.0020824  |   0.0 |  0.01
Modify  | 3.1839     | 3.1839     | 3.1839     |   0.0 |  9.06
Other   |            | 0.5489     |            |       |  1.56

Nlocal:            100 ave         100 max         100 min
Histogram: 1 0 0 0 0 0 0 0 0 0
Nghost:              0 ave           0 max           0 min
Histogram: 1 0 0 0 0 0 0 0 0 0
Neighs:           1187 ave        1187 max        1187 min
Histogram: 1 0 0 0 0 0 0 0 0 0
FullNghs:            0 ave           0 max           0 min
Histogram: 1 0 0 0 0 0 0 0 0 0

Total # of neighbors = 1187
Ave neighs/atom = 11.87
Ave special neighs/atom = 5.88
Neighbor list builds = 100000
Dangerous builds = 100000
unfix 1
unfix 2
write_restart 	restart.${simname}.dreiding1
write_restart 	restart.InitialFile.dreiding1
System init for write_restart ...
Generated 0 of 3 mixed pair_coeff terms from geometric mixing rule


#####################################################
# Define Settings
compute eng all pe/atom
compute eatoms all reduce sum c_eng

#####################################################
# Minimization

dump mydmp all atom 100 dump.lammpstrj

reset_timestep 0
fix 1 all nvt temp 500.0 500.0 100.0
thermo 20
thermo_style custom step pe lx ly lz press pxx pyy pzz c_eatoms
min_style cg
minimize 1e-25 1e-25 500000 1000000
Switching to 'neigh_modify every 1 delay 0 check yes' setting during minimization
Generated 0 of 3 mixed pair_coeff terms from geometric mixing rule
Per MPI rank memory allocation (min/avg/max) = 9.275 | 9.275 | 9.275 Mbytes
   Step         PotEng           Lx             Ly             Lz           Press           Pxx            Pyy            Pzz          c_eatoms   
         0   1011.9748      158.5          158.5          158.5          14.06067       13.213516      19.012722      9.9557721      1011.9748    
        20   117.4783       158.5          158.5          158.5          13.057523      15.792386      13.108774      10.27141       117.4783     
        40   69.813744      158.5          158.5          158.5          13.784861      17.140628      13.914242      10.299712      69.813744    
        60   47.042085      158.5          158.5          158.5          13.463246      16.53964       13.810226      10.039872      47.042085    
        80   35.620422      158.5          158.5          158.5          12.720838      15.720905      12.992512      9.449097       35.620422    
       100   32.322685      158.5          158.5          158.5          12.900578      15.827285      13.197083      9.6773657      32.322685    
       120   29.946353      158.5          158.5          158.5          12.950543      15.920529      13.260975      9.6701251      29.946353    
       140   27.197136      158.5          158.5          158.5          12.745345      15.852873      13.099538      9.2836248      27.197136    
       160   24.950007      158.5          158.5          158.5          12.527815      15.65845       12.676304      9.2486892      24.950007    
       180   22.559804      158.5          158.5          158.5          12.596585      15.88879       12.75937       9.1415962      22.559804    
       200   21.156584      158.5          158.5          158.5          12.530334      15.587864      12.893522      9.1096167      21.156584    
       220   19.828961      158.5          158.5          158.5          12.590615      15.605574      13.006203      9.1600686      19.828961    
       240   18.057899      158.5          158.5          158.5          12.841403      15.609044      13.323734      9.5914311      18.057899    
       260   16.903996      158.5          158.5          158.5          12.784796      15.531532      13.186627      9.6362299      16.903996    
       280   15.913944      158.5          158.5          158.5          12.702673      15.664268      12.888816      9.5549361      15.913944    
       300   15.189843      158.5          158.5          158.5          12.691779      15.605376      13.006649      9.4633106      15.189843    
       320   14.647112      158.5          158.5          158.5          12.78243       15.700043      13.120747      9.5264995      14.647112    
       340   14.348819      158.5          158.5          158.5          12.785325      15.609597      13.234027      9.5123516      14.348819    
       360   13.782237      158.5          158.5          158.5          12.638964      15.370727      13.143621      9.4025443      13.782237    
       380   13.056205      158.5          158.5          158.5          12.799739      15.640508      13.205393      9.5533178      13.056205    
       400   12.454391      158.5          158.5          158.5          12.771161      15.78268       13.11731       9.4134921      12.454391    
       420   11.75403       158.5          158.5          158.5          12.700449      15.795929      12.949859      9.3555578      11.75403     
       440   11.2487        158.5          158.5          158.5          12.644897      15.63923       13.05224       9.2432229      11.2487      
       460   10.815243      158.5          158.5          158.5          12.628882      15.633162      12.976488      9.2769959      10.815243    
       480   10.4205        158.5          158.5          158.5          12.768288      15.75442       13.127742      9.4227022      10.4205      
       500   10.065793      158.5          158.5          158.5          12.714461      15.675608      13.070171      9.3976023      10.065793    
       520   9.7018295      158.5          158.5          158.5          12.719288      15.620608      13.147489      9.3897665      9.7018295    
       540   9.2922513      158.5          158.5          158.5          12.747743      15.560381      13.180314      9.5025326      9.2922513    
       560   8.892288       158.5          158.5          158.5          12.809692      15.65335       13.100128      9.6755975      8.892288     
       580   8.4878595      158.5          158.5          158.5          12.688794      15.700367      12.981412      9.3846034      8.4878595    
       600   7.1396076      158.5          158.5          158.5          12.273791      15.337778      12.659494      8.824101       7.1396076    
       620   5.4096687      158.5          158.5          158.5          12.723012      15.786752      12.978939      9.4033455      5.4096687    
       640   4.7665034      158.5          158.5          158.5          12.811516      15.670925      13.119005      9.6446198      4.7665034    
       660   4.384962       158.5          158.5          158.5          12.78722       15.761608      13.115749      9.4843029      4.384962     
       680   4.1326112      158.5          158.5          158.5          12.788408      15.755538      13.13973       9.4699562      4.1326112    
       700   3.9387721      158.5          158.5          158.5          12.723393      15.687871      13.076557      9.4057501      3.9387721    
       720   3.7235359      158.5          158.5          158.5          12.701841      15.732724      13.043808      9.3289893      3.7235359    
       740   3.3955455      158.5          158.5          158.5          12.730812      15.704846      13.072313      9.4152779      3.3955455    
       760   3.1251857      158.5          158.5          158.5          12.763345      15.724216      13.105164      9.4606549      3.1251857    
       780   2.9535481      158.5          158.5          158.5          12.746066      15.736506      13.104334      9.3973581      2.9535481    
       800   2.826298       158.5          158.5          158.5          12.781217      15.751447      13.144788      9.4474164      2.826298     
       820   2.566773       158.5          158.5          158.5          12.841792      15.85088       13.174297      9.5001988      2.566773     
       840   2.3406662      158.5          158.5          158.5          12.777864      15.766608      13.080499      9.4864839      2.3406662    
       860   2.0879357      158.5          158.5          158.5          12.803951      15.754463      13.095014      9.5623749      2.0879357    
       880   1.8204543      158.5          158.5          158.5          12.75147       15.72924       13.070677      9.4544925      1.8204543    
       900   1.5258385      158.5          158.5          158.5          12.71821       15.736124      13.035806      9.3827004      1.5258385    
       920   1.4768763      158.5          158.5          158.5          12.77266       15.773124      13.102329      9.4425282      1.4768763    
       922   1.4757481      158.5          158.5          158.5          12.764268      15.749739      13.09473       9.4483347      1.4757481    
Loop time of 0.104638 on 1 procs for 922 steps with 100 atoms

92.1% CPU use with 1 MPI tasks x no OpenMP threads

Minimization stats:
  Stopping criterion = linesearch alpha is zero
  Energy initial, next-to-last, final = 
      1011.97475277022   1.47574813931252   1.47574813931252
  Force two-norm initial, final = 1161.0025 1.0980343
  Force max component initial, final = 182.84021 0.26675876
  Final line search alpha, max atom move = 9.9877001e-09 2.6643065e-09
  Iterations, force evaluations = 922 1888

MPI task timing breakdown:
Section |  min time  |  avg time  |  max time  |%varavg| %total
---------------------------------------------------------------
Pair    | 0.058336   | 0.058336   | 0.058336   |   0.0 | 55.75
Bond    | 0.029592   | 0.029592   | 0.029592   |   0.0 | 28.28
Neigh   | 0.007727   | 0.007727   | 0.007727   |   0.0 |  7.38
Comm    | 0.00037831 | 0.00037831 | 0.00037831 |   0.0 |  0.36
Output  | 0.0041197  | 0.0041197  | 0.0041197  |   0.0 |  3.94
Modify  | 0          | 0          | 0          |   0.0 |  0.00
Other   |            | 0.004485   |            |       |  4.29

Nlocal:            100 ave         100 max         100 min
Histogram: 1 0 0 0 0 0 0 0 0 0
Nghost:              0 ave           0 max           0 min
Histogram: 1 0 0 0 0 0 0 0 0 0
Neighs:           1200 ave        1200 max        1200 min
Histogram: 1 0 0 0 0 0 0 0 0 0
FullNghs:            0 ave           0 max           0 min
Histogram: 1 0 0 0 0 0 0 0 0 0

Total # of neighbors = 1200
Ave neighs/atom = 12
Ave special neighs/atom = 5.88
Neighbor list builds = 93
Dangerous builds = 0

run 100000
Generated 0 of 3 mixed pair_coeff terms from geometric mixing rule
Per MPI rank memory allocation (min/avg/max) = 9.279 | 9.279 | 9.279 Mbytes
   Step         PotEng           Lx             Ly             Lz           Press           Pxx            Pyy            Pzz          c_eatoms   
       922   1.4757481      158.5          158.5          158.5          12.764268      15.749739      13.09473       9.4483347      1.4757481    
       940   458.23156      158.5          158.5          158.5         -3.3087155      0.3090125      2.5926081     -12.827767      458.23156    
       960   368.1559       158.5          158.5          158.5          1.5643435      3.8603723     -2.7044391      3.5370974      368.1559     
       980   391.44535      158.5          158.5          158.5          9.3539344      7.3427219      7.512001       13.20708       391.44535    
      1000   348.16337      158.5          158.5          158.5         -10.02615      -4.2781751     -6.5100844     -19.29019       348.16337    
      1020   327.28579      158.5          158.5          158.5          2.9992823      3.6185791      9.3343253     -3.9550576      327.28579    
      1040   307.41813      158.5          158.5          158.5         -4.1748859     -6.1050781     -5.7078871     -0.7116923      307.41813    
      1060   289.32386      158.5          158.5          158.5         -7.0349249     -4.8256633     -8.925684      -7.3534275      289.32386    
      1080   217.8865       158.5          158.5          158.5          5.5722137      9.6398743      6.2683649      0.80840178     217.8865     
      1100   244.63751      158.5          158.5          158.5         -4.8125869     -3.5644966     -3.8708429     -7.0024213      244.63751    
      1120   212.31946      158.5          158.5          158.5          4.6604243      5.0860496      3.9323688      4.9628546      212.31946    
      1140   240.62566      158.5          158.5          158.5          1.7551966      2.5200519      1.2574955      1.4880424      240.62566    
      1160   178.13525      158.5          158.5          158.5         -0.22943722     2.0354443     -1.5315979     -1.192158       178.13525    
      1180   213.01024      158.5          158.5          158.5          6.3596384      4.8944413      8.2261296      5.9583444      213.01024    
      1200   183.74978      158.5          158.5          158.5         -1.3179511     -3.5962818      2.1881746     -2.5457461      183.74978    
      1220   173.2309       158.5          158.5          158.5          1.1542771      2.233091      -2.1234156      3.353156       173.2309     
      1240   170.62928      158.5          158.5          158.5         -0.95115094     0.53693696    -4.6407758      1.250386       170.62928    
      1260   167.13819      158.5          158.5          158.5         -6.2283941     -6.5646883     -7.1385924     -4.9819017      167.13819    
      1280   153.93523      158.5          158.5          158.5          4.0058299      4.295155       2.6257141      5.0966205      153.93523    
      1300   149.32593      158.5          158.5          158.5         -1.5212003     -1.1366793     -3.996547       0.56962541     149.32593    
      1320   151.76421      158.5          158.5          158.5          1.2642176      3.1010974     -1.8513648      2.5429203      151.76421    
      1340   148.22222      158.5          158.5          158.5          0.58759832     4.2050055      0.13946277    -2.5816733      148.22222    
      1360   150.78799      158.5          158.5          158.5         -3.5550469     -6.353854      -2.328381      -1.9829055      150.78799    
      1380   154.63971      158.5          158.5          158.5          2.1948154     -2.189633       1.5648098      7.2092693      154.63971    
      1400   148.91674      158.5          158.5          158.5         -2.3285634     -0.90684056    -4.4932586     -1.5855909      148.91674    
      1420   147.5855       158.5          158.5          158.5          0.1972994      3.0289262      1.7286573     -4.1656853      147.5855     
      1440   158.19965      158.5          158.5          158.5         -1.9622034     -3.4759442      0.48142738    -2.8920934      158.19965    
      1460   148.19846      158.5          158.5          158.5         -3.7391802     -4.7482298     -3.5240411     -2.9452698      148.19846    
      1480   156.0509       158.5          158.5          158.5          3.7624012      8.3179693      3.4689093     -0.4996749      156.0509     
      1500   157.43623      158.5          158.5          158.5          0.32136939     2.0503101      2.1865455     -3.2727474      157.43623    
      1520   160.39479      158.5          158.5          158.5         -0.13779668    -2.6393593      1.4257343      0.80023498     160.39479    
      1540   164.93664      158.5          158.5          158.5          2.1414232      2.5833296      0.26880285     3.5721372      164.93664    
      1560   169.20521      158.5          158.5          158.5         -3.1941105     -2.1913383     -4.9721133     -2.4188798      169.20521    
      1580   178.26341      158.5          158.5          158.5         -2.4636978     -3.8400424      1.4931144     -5.0441654      178.26341    
      1600   171.36204      158.5          158.5          158.5         -0.44642621    -0.72625304     1.4452043     -2.0582299      171.36204    
      1620   195.56321      158.5          158.5          158.5         -0.22257502    -4.4589536      1.3973463      2.3938822      195.56321    
      1640   185.3172       158.5          158.5          158.5          2.5958031      4.1339926      0.33033512     3.3230817      185.3172     
      1660   178.63796      158.5          158.5          158.5          3.3394749      9.078662      -0.82939829     1.769161       178.63796    
      1680   194.8731       158.5          158.5          158.5         -1.5921327     -5.1472617      1.2954104     -0.92454671     194.8731     
      1700   192.38372      158.5          158.5          158.5          2.7960729     -3.7770667      3.3749277      8.7903578      192.38372    
      1720   179.72457      158.5          158.5          158.5          1.2576735      3.6058053     -3.7599917      3.9272067      179.72457    
      1740   186.82519      158.5          158.5          158.5         -3.5345592      0.47138571    -3.7972259     -7.2778373      186.82519    
      1760   170.54804      158.5          158.5          158.5          3.2796132     -0.6175023      7.0193503      3.4369916      170.54804    
      1780   178.7907       158.5          158.5          158.5         -0.22287688    -2.2183692     -4.1447818      5.6945205      178.7907     
      1800   168.65895      158.5          158.5          158.5          0.48557134     4.9176383     -6.4041965      2.9432722      168.65895    
      1820   173.90253      158.5          158.5          158.5         -0.27672058     3.9189179     -0.22189427    -4.5271854      173.90253    
      1840   169.46641      158.5          158.5          158.5         -2.7515835     -5.1860724     -0.7769377     -2.2917405      169.46641    
      1860   153.07205      158.5          158.5          158.5          0.98767338    -2.4356311     -1.3544468      6.753098       153.07205    
      1880   151.19847      158.5          158.5          158.5          0.67588587     0.8970725      2.2735815     -1.1429964      151.19847    
      1900   168.55675      158.5          158.5          158.5         -0.98740438    -0.46725977     1.6883491     -4.1833025      168.55675    
      1920   160.30663      158.5          158.5          158.5         -0.92967108    -2.6269507     -1.5030551      1.3409926      160.30663    
      1940   144.7748       158.5          158.5          158.5          1.2877856      2.0104185      1.9315788     -0.078640589    144.7748     
      1960   142.18944      158.5          158.5          158.5          0.24213301     2.7551328      1.1740578     -3.2027916      142.18944    
      1980   153.39336      158.5          158.5          158.5          1.7830463      1.0800115      2.0422582      2.226869       153.39336    
      2000   148.19445      158.5          158.5          158.5          0.34343594    -0.49995154    -2.0614543      3.5917137      148.19445    
      2020   154.70703      158.5          158.5          158.5         -1.5563606     -0.12973407    -0.43634701    -4.1030009      154.70703    
      2040   142.00052      158.5          158.5          158.5          2.7724239      2.8972649      3.0508742      2.3691326      142.00052    
      2060   138.76966      158.5          158.5          158.5         -1.0051322      1.1856877     -4.8159087      0.61482442     138.76966    
      2080   140.88747      158.5          158.5          158.5          0.69820263     0.55233495     3.6784901     -2.1362172      140.88747    
      2100   167.24104      158.5          158.5          158.5          3.3250142     -0.41587911     8.8149273      1.5759945      167.24104    
      2120   149.85736      158.5          158.5          158.5         -3.3506522     -5.3419021     -7.2495443      2.5394898      149.85736    
      2140   159.29385      158.5          158.5          158.5          4.3569374      5.3921373     -0.080602353    7.7592774      159.29385    
      2160   152.80629      158.5          158.5          158.5          0.41202656    -0.36587368     0.35518677     1.2467666      152.80629    
      2180   166.71609      158.5          158.5          158.5         -1.3503823     -2.2558532      0.54124185    -2.3365356      166.71609    
      2200   161.41461      158.5          158.5          158.5          2.195892       4.0961658     -0.010251765    2.5017619      161.41461    
      2220   176.87454      158.5          158.5          158.5         -5.9724295     -4.1752979     -9.6052074     -4.1367831      176.87454    
      2240   163.04767      158.5          158.5          158.5          1.3969161     -0.18617124     2.5502927      1.8266268      163.04767    
      2260   167.13082      158.5          158.5          158.5          0.44144824    -1.0994838      4.8861114     -2.4622829      167.13082    
      2280   162.82266      158.5          158.5          158.5          0.4053579      2.4220199      1.608279      -2.8142251      162.82266    
      2300   163.19263      158.5          158.5          158.5          3.8919723      4.3469837     -1.2831664      8.6120996      163.19263    
      2320   172.59329      158.5          158.5          158.5         -4.6040265     -6.2925477     -6.7361707     -0.78336124     172.59329    
      2340   176.27732      158.5          158.5          158.5         -0.86450587    -1.1571808      0.65751283    -2.0938497      176.27732    
      2360   158.42487      158.5          158.5          158.5         -2.8626753      0.55304841    -4.8788959     -4.2621783      158.42487    
      2380   169.62871      158.5          158.5          158.5         -2.2897534      1.959772      -7.9435654     -0.88546668     169.62871    
      2400   171.58524      158.5          158.5          158.5          3.0956486      0.81782479     3.1200794      5.3490415      171.58524    
      2420   176.72649      158.5          158.5          158.5         -4.1165216     -7.6593535      2.2594438     -6.949655       176.72649    
      2440   148.40417      158.5          158.5          158.5          3.0321713      5.7586577     -0.51947976     3.8573358      148.40417    
      2460   177.16824      158.5          158.5          158.5         -2.8101291      0.3552039     -9.3135985      0.5280073      177.16824    
      2480   142.58224      158.5          158.5          158.5         -3.1652603     -2.4427848     -5.4522789     -1.600717       142.58224    
      2500   163.52313      158.5          158.5          158.5          5.5706862      2.8639162      11.115184      2.7329586      163.52313    
      2520   146.57797      158.5          158.5          158.5         -1.3605572     -4.7412402      2.7229288     -2.0633601      146.57797    
      2540   160.73594      158.5          158.5          158.5          1.0887127      1.5966494     -2.1886043      3.8580929      160.73594    
      2560   144.45732      158.5          158.5          158.5          2.8986941      3.1830164      0.74861557     4.7644504      144.45732    
      2580   151.77895      158.5          158.5          158.5         -3.6828809     -5.805288       1.3664041     -6.6097588      151.77895    
      2600   146.51186      158.5          158.5          158.5          2.9465302      1.8784361      8.4197001     -1.4585456      146.51186    
      2620   153.04203      158.5          158.5          158.5         -0.66757401     0.084478806   -2.9684455      0.88124468     153.04203    
      2640   146.28275      158.5          158.5          158.5          1.4011238      1.4406002      0.91678932     1.845982       146.28275    
      2660   147.87237      158.5          158.5          158.5          2.9496058      3.6632555      5.0594286      0.12613331     147.87237    
      2680   148.49466      158.5          158.5          158.5         -2.0368017     -3.8507015     -2.2526218     -0.0070818147   148.49466    
      2700   164.67532      158.5          158.5          158.5          2.445472       2.9483959     -0.73817026     5.1261903      164.67532    
      2720   159.82723      158.5          158.5          158.5          1.3590797      6.3712412     -3.2749225      0.98092033     159.82723    
      2740   164.2473       158.5          158.5          158.5         -1.4280731      0.54035446    -1.8686573     -2.9559165      164.2473     
      2760   157.76124      158.5          158.5          158.5          2.9809467      2.6798798      4.3372597      1.9257005      157.76124    
      2780   161.30807      158.5          158.5          158.5         -0.9272905      0.96476338    -2.1479599     -1.598675       161.30807    
      2800   161.04231      158.5          158.5          158.5         -2.3098484      0.34378868    -4.6902968     -2.583037       161.04231    
      2820   156.37763      158.5          158.5          158.5          1.1948605     -0.40948518     0.78054699     3.2135197      156.37763    
      2840   176.37098      158.5          158.5          158.5         -1.280265      -3.0239087      2.2573101     -3.0741963      176.37098    
      2860   164.60501      158.5          158.5          158.5          0.18782325     4.8558544      2.4168098     -6.7091944      164.60501    
      2880   175.85328      158.5          158.5          158.5         -0.25406088     1.9786367     -1.5581153     -1.182704       175.85328    
      2900   169.24434      158.5          158.5          158.5         -3.1685541     -7.409793      -2.137014       0.041144752    169.24434    
      2920   174.04048      158.5          158.5          158.5         -0.53947748    -3.2430468      6.2405025     -4.6158881      174.04048    
      2940   177.90176      158.5          158.5          158.5          0.41118684     2.0508729      3.141646      -3.9589584      177.90176    
      2960   166.80504      158.5          158.5          158.5         -4.574815      -3.1000607     -7.5903999     -3.0339843      166.80504    
      2980   176.64439      158.5          158.5          158.5          1.5614116     -0.74974346    -0.39664573     5.8306239      176.64439    
      3000   165.25055      158.5          158.5          158.5          1.460902      -1.4784425      2.2571331      3.6040153      165.25055    
      3020   179.83206      158.5          158.5          158.5         -0.21139447    -0.33801187    -0.95876804     0.66259649     179.83206    
      3040   172.44486      158.5          158.5          158.5          2.1672039      3.0059121      2.2943986      1.201301       172.44486    
      3060   173.52172      158.5          158.5          158.5         -0.69195497    -3.728134       0.43833346     1.2139356      173.52172    
      3080   164.33127      158.5          158.5          158.5         -1.0118109     -4.1911738     -1.9571011      3.1128424      164.33127    
      3100   159.50395      158.5          158.5          158.5         -1.1243257      2.3323499     -3.6720506     -2.0332764      159.50395    
      3120   144.81085      158.5          158.5          158.5         -1.760326       0.30269106    -3.5083671     -2.0753019      144.81085    
      3140   158.58237      158.5          158.5          158.5         -1.6877779     -4.7049934      1.7261012     -2.0844416      158.58237    
      3160   151.44412      158.5          158.5          158.5          0.020304372    0.34328776     0.83419928    -1.1165739      151.44412    
      3180   152.24499      158.5          158.5          158.5          1.1652286      1.9779653      1.2741537      0.2435669      152.24499    
      3200   148.38619      158.5          158.5          158.5         -1.1436559      1.5980681     -2.6190095     -2.4100263      148.38619    
      3220   152.31943      158.5          158.5          158.5         -0.024606028    1.1023497     -4.692287       3.5161192      152.31943    
      3240   135.80156      158.5          158.5          158.5         -2.0427727     -2.7618314     -0.84098004    -2.5255066      135.80156    
      3260   145.51346      158.5          158.5          158.5         -0.30536432     0.98768761     0.28566832    -2.1894489      145.51346    
      3280   142.63949      158.5          158.5          158.5         -1.651767       2.096905      -4.0867921     -2.965414       142.63949    
      3300   148.30172      158.5          158.5          158.5         -1.7434904     -0.60276414    -1.8135272     -2.81418        148.30172    
      3320   144.6001       158.5          158.5          158.5          2.0651976     -3.3314613      3.0057651      6.521289       144.6001     
      3340   142.17615      158.5          158.5          158.5         -1.9195231     -2.1488993     -1.8130813     -1.7965886      142.17615    
      3360   141.11732      158.5          158.5          158.5          2.2360155      7.4194661     -0.42455261    -0.28686703     141.11732    
      3380   133.33381      158.5          158.5          158.5          1.4089751      1.5976702      1.3126702      1.3165849      133.33381    
      3400   132.2735       158.5          158.5          158.5          0.1843923     -2.3630179      2.6331276      0.28306714     132.2735     
      3420   148.71052      158.5          158.5          158.5          2.9327162      2.7107781      4.0146903      2.0726803      148.71052    
      3440   143.65452      158.5          158.5          158.5         -2.2018018      0.25673543    -5.4425964     -1.4195443      143.65452    
      3460   137.45167      158.5          158.5          158.5         -1.9137324     -3.0073416     -1.3583055     -1.3755499      137.45167    
      3480   151.3656       158.5          158.5          158.5         -0.78172357    -3.1489406      4.3819149     -3.578145       151.3656     
      3500   163.63349      158.5          158.5          158.5         -1.4670853      0.60218349    -1.1897523     -3.8136872      163.63349    
      3520   157.81647      158.5          158.5          158.5          4.3659425      6.2027592      3.2831226      3.6119457      157.81647    
      3540   140.8062       158.5          158.5          158.5          3.2662953     -1.0071574      3.5314979      7.2745456      140.8062     
      3560   149.36279      158.5          158.5          158.5          0.81758133    -0.83738081    -1.27949        4.5696148      149.36279    
      3580   160.68171      158.5          158.5          158.5         -0.52622336    -1.4750181      0.51541085    -0.6190628      160.68171    
      3600   160.43951      158.5          158.5          158.5         -2.6260311     -2.5419891      1.1810059     -6.5171102      160.43951    
      3620   159.96092      158.5          158.5          158.5          0.95906336    -1.0194686      0.70277505     3.1938836      159.96092    
      3640   152.7377       158.5          158.5          158.5          0.47662995     2.0556488     -1.5454969      0.91973795     152.7377     
      3660   172.90936      158.5          158.5          158.5          0.69298123     4.3847089      0.72327688    -3.0290421      172.90936    
      3680   171.9319       158.5          158.5          158.5          0.92987301     2.5198676     -1.2413887      1.5111402      171.9319     
      3700   155.30941      158.5          158.5          158.5         -1.8488437     -3.3486695     -4.531071       2.3332094      155.30941    
      3720   156.11259      158.5          158.5          158.5         -0.4218424     -3.8900323      3.2337003     -0.6091952      156.11259    
      3740   180.17232      158.5          158.5          158.5         -2.3242365     -0.2122565      0.018442032   -6.7788951      180.17232    
      3760   151.00421      158.5          158.5          158.5          0.2284303      2.7512781     -3.1359779      1.0699907      151.00421    
      3780   178.44099      158.5          158.5          158.5         -0.73404651     2.9237456     -6.5251863      1.3993012      178.44099    
      3800   158.1223       158.5          158.5          158.5         -1.1407456     -1.3706507      0.51831381    -2.5698999      158.1223     
      3820   174.81997      158.5          158.5          158.5          1.5423814     -1.6109712      4.0355273      2.2025881      174.81997    
      3840   148.13668      158.5          158.5          158.5         -4.4298195     -3.6982103     -7.1429845     -2.4482636      148.13668    
      3860   164.09311      158.5          158.5          158.5         -1.3924715     -1.6055515     -2.676876       0.10501298     164.09311    
      3880   158.13029      158.5          158.5          158.5         -2.0973365     -3.2109895     -3.2467498      0.16572979     158.13029    
      3900   164.1114       158.5          158.5          158.5         -0.46916419    -0.85664725     1.5996027     -2.150448       164.1114     
      3920   146.479        158.5          158.5          158.5          1.1370991      2.7346266     -4.052983       4.7296538      146.479      
      3940   149.94549      158.5          158.5          158.5         -0.44662007    -0.36979338    -6.6792367      5.7091699      149.94549    
      3960   144.88185      158.5          158.5          158.5          2.8728482      0.44364733     6.6933363      1.481561       144.88185    
      3980   138.69667      158.5          158.5          158.5          0.94847354    -1.2050097      4.5702185     -0.51978823     138.69667    
      4000   148.79894      158.5          158.5          158.5         -0.59065038    -1.5515488     -3.9944578      3.7740555      148.79894    
      4020   142.66904      158.5          158.5          158.5          2.425526       6.295985      -2.4476405      3.4282334      142.66904    
      4040   145.41918      158.5          158.5          158.5         -0.35799489     3.0699168     -0.47880156    -3.6650999      145.41918    
      4060   135.98214      158.5          158.5          158.5          2.4555531      0.23686876     3.5293609      3.6004297      135.98214    
      4080   143.98032      158.5          158.5          158.5          2.8447317      0.28820921     1.6162595      6.6297265      143.98032    
      4100   145.20124      158.5          158.5          158.5         -2.8624756     -0.033659874   -7.0461806     -1.5075864      145.20124    
      4120   137.59039      158.5          158.5          158.5          0.78535159     4.2159599     -2.8041352      0.94423009     137.59039    
      4140   160.30295      158.5          158.5          158.5         -1.1768963     -0.25030261     1.3520143     -4.6324007      160.30295    
      4160   130.24017      158.5          158.5          158.5         -1.3489969     -3.7286758     -0.1890719     -0.12924308     130.24017    
      4180   149.22789      158.5          158.5          158.5          2.2362451      2.1269944     -3.4614465      8.0431875      149.22789    
      4200   152.48935      158.5          158.5          158.5         -0.33637551     0.1820201     -0.94311486    -0.24803176     152.48935    
      4220   143.54208      158.5          158.5          158.5          3.6669319      3.2453862      8.3133733     -0.55796393     143.54208    
      4240   156.58982      158.5          158.5          158.5          1.0970427      0.86566297    -0.22628689     2.6517519      156.58982    
      4260   162.69295      158.5          158.5          158.5         -3.7614642     -0.79838445    -5.2074968     -5.2785113      162.69295    
      4280   141.75857      158.5          158.5          158.5         -0.38396116    -0.019416997    2.9329384     -4.0654049      141.75857    
      4300   141.84342      158.5          158.5          158.5         -1.4328005     -4.400163       1.7214898     -1.6197284      141.84342    
      4320   162.02314      158.5          158.5          158.5         -1.5873529     -3.0132665     -1.592658      -0.15613409     162.02314    
      4340   149.77928      158.5          158.5          158.5          1.743171       1.9740194      1.6761502      1.5793435      149.77928    
      4360   153.21419      158.5          158.5          158.5         -2.8806223     -5.1787618     -1.4357062     -2.0273989      153.21419    
      4380   163.22406      158.5          158.5          158.5         -1.0265107     -1.9011534      0.50913307    -1.6875119      163.22406    
      4400   164.94589      158.5          158.5          158.5          1.6538953      1.7914041      2.1394596      1.0308221      164.94589    
      4420   158.48014      158.5          158.5          158.5         -6.0634842     -6.6446846     -7.2043051     -4.3414629      158.48014    
      4440   151.30997      158.5          158.5          158.5         -1.3766237     -1.6671307      0.5925129     -3.0552534      151.30997    
      4460   142.37423      158.5          158.5          158.5          1.4048791      1.213039       0.9087038      2.0928945      142.37423    
      4480   151.94734      158.5          158.5          158.5         -0.20672806    -0.29945857    -1.4982235      1.1774979      151.94734    
      4500   152.18275      158.5          158.5          158.5          4.1276832      5.4564013      4.6305483      2.2961         152.18275    
      4520   138.83853      158.5          158.5          158.5         -0.65035643     0.36909526    -1.5062123     -0.81395225     138.83853    
      4540   159.15138      158.5          158.5          158.5          0.8883767     -0.68322749     0.61921381     2.7291438      159.15138    
      4560   150.30145      158.5          158.5          158.5          0.9557051     -0.8491283     -1.5656334      5.281877       150.30145    
      4580   161.13404      158.5          158.5          158.5         -0.36047179     2.5181908     -3.2829001     -0.31670602     161.13404    
      4600   162.63999      158.5          158.5          158.5          2.2952702      6.1049291      1.5005615     -0.71967996     162.63999    
      4620   157.09135      158.5          158.5          158.5          0.880212       1.4189268     -1.6038299      2.8255391      157.09135    
      4640   154.51174      158.5          158.5          158.5          0.71327592    -1.758397      -0.79443491     4.6926597      154.51174    
      4660   153.34744      158.5          158.5          158.5         -0.52326296     0.97403381    -1.0064992     -1.5373235      153.34744    
      4680   139.46653      158.5          158.5          158.5          0.60363589     2.7112399      0.51354536    -1.4138776      139.46653    
      4700   169.00236      158.5          158.5          158.5         -2.8027184     -4.3121634     -1.3740887     -2.7219031      169.00236    
      4720   172.57578      158.5          158.5          158.5         -3.4560255     -6.4894959     -3.2066904     -0.67189014     172.57578    
      4740   158.72432      158.5          158.5          158.5          2.2757711      2.6390869      1.091392       3.0968344      158.72432    
      4760   170.69011      158.5          158.5          158.5         -1.7775359      2.4898812     -0.053941121   -7.7685478      170.69011    
      4780   174.31525      158.5          158.5          158.5          0.27383179     2.7089265      1.1557873     -3.0432184      174.31525    
      4800   178.64468      158.5          158.5          158.5         -0.63642284    -1.8035607     -0.67979822     0.57409036     178.64468    
      4820   176.39387      158.5          158.5          158.5         -2.5017327     -2.0456526     -0.85406516    -4.6054803      176.39387    
      4840   163.44074      158.5          158.5          158.5          0.95018924     2.8753508      3.4138391     -3.4386222      163.44074    
      4860   158.79568      158.5          158.5          158.5         -0.70866838    -1.6368802     -0.88827428     0.39914933     158.79568    
      4880   152.80769      158.5          158.5          158.5          1.4218141     -1.8066889      0.41280013     5.6593309      152.80769    
      4900   153.10813      158.5          158.5          158.5          2.6601411      2.1680607      4.142125       1.6702375      153.10813    
      4920   160.81568      158.5          158.5          158.5          0.94169147     0.028291171    2.9641094     -0.16732612     160.81568    
      4940   157.95454      158.5          158.5          158.5          1.0015889     -0.76583013     1.1923636      2.5782333      157.95454    
      4960   147.23877      158.5          158.5          158.5         -1.9637272     -4.0711536      2.5201596     -4.3401874      147.23877    
      4980   160.0998       158.5          158.5          158.5          0.35929171    -2.0748112      5.9498753     -2.7971889      160.0998     
      5000   154.99364      158.5          158.5          158.5         -0.89889084     2.8930636     -2.9726163     -2.6171199      154.99364    
      5020   142.13336      158.5          158.5          158.5         -0.46457685     0.041250952   -3.1505032      1.7155217      142.13336    
      5040   165.45588      158.5          158.5          158.5          0.80417943    -3.9917948      2.4613022      3.9430309      165.45588    
      5060   166.35268      158.5          158.5          158.5          4.0556757      6.1052317      1.3711404      4.6906549      166.35268    
      5080   142.68839      158.5          158.5          158.5          0.1380587      5.8909366     -5.3759069     -0.10085359     142.68839    
      5100   144.09849      158.5          158.5          158.5          1.1864345     -4.0182399      3.2898828      4.2876607      144.09849    
      5120   138.25557      158.5          158.5          158.5          0.31844428    -4.4372735      2.3048363      3.08777        138.25557    
      5140   155.64081      158.5          158.5          158.5         -1.5233503      5.2644347     -3.9487598     -5.885726       155.64081    
      5160   138.4447       158.5          158.5          158.5          0.90759109     5.3155012     -3.5939529      1.001225       138.4447     
      5180   153.61116      158.5          158.5          158.5         -5.60243       -8.8191222     -7.5583244     -0.42984329     153.61116    
      5200   146.71047      158.5          158.5          158.5         -1.5914867     -1.5905092     -0.27347774    -2.9104731      146.71047    
      5220   157.43528      158.5          158.5          158.5          0.095609309    2.3387049     -2.4880505      0.43617356     157.43528    
      5240   150.28053      158.5          158.5          158.5         -1.7546519     -0.034313917   -7.7858272      2.5561855      150.28053    
      5260   148.7775       158.5          158.5          158.5          0.99142714    -3.0655629      3.5066234      2.533221       148.7775     
      5280   154.82856      158.5          158.5          158.5         -0.68778289    -4.4903662      1.4766335      0.95038409     154.82856    
      5300   155.09218      158.5          158.5          158.5         -0.77714686     2.0019362     -5.9700927      1.6367159      155.09218    
      5320   138.36995      158.5          158.5          158.5         -1.4689596     -1.1683622     -3.4856088      0.2470923      138.36995    
      5340   155.99875      158.5          158.5          158.5         -0.91104699    -2.5899426     -0.35921875     0.21602043     155.99875    
      5360   139.73146      158.5          158.5          158.5          3.5926329      3.6021479      3.5028211      3.6729297      139.73146    
      5380   154.22272      158.5          158.5          158.5         -1.6556586      0.77337267    -0.34426256    -5.396086       154.22272    
      5400   150.34897      158.5          158.5          158.5          1.3400533      0.49422022     0.91758524     2.6083544      150.34897    
      5420   152.88882      158.5          158.5          158.5          3.5652954     -2.0238117      3.1120901      9.6076078      152.88882    
      5440   136.60656      158.5          158.5          158.5         -1.3540576     -3.4808709     -1.6223996      1.0410977      136.60656    
      5460   172.61603      158.5          158.5          158.5          1.6625337      5.8872299     -1.3341293      0.43450057     172.61603    
      5480   147.70334      158.5          158.5          158.5         -0.33909724     1.5282376     -1.6205632     -0.92496618     147.70334    
      5500   160.61025      158.5          158.5          158.5         -1.4489607     -7.5616688      1.2634534      1.9513334      160.61025    
      5520   158.14005      158.5          158.5          158.5          2.8970947      0.95911441     1.7695608      5.9626088      158.14005    
      5540   155.59958      158.5          158.5          158.5          0.25946605     2.7440197      1.5482713     -3.5138929      155.59958    
      5560   161.17724      158.5          158.5          158.5          0.28950694     1.649381       1.652551      -2.4334112      161.17724    
      5580   167.80207      158.5          158.5          158.5          2.9061836      0.83707912    -2.4175087      10.29898       167.80207    
      5600   152.78846      158.5          158.5          158.5         -2.1457116     -3.4535803     -2.091662      -0.89189244     152.78846    
      5620   156.6812       158.5          158.5          158.5         -0.31711286     4.0008597     -0.40880689    -4.5433914      156.6812     
      5640   162.15875      158.5          158.5          158.5          4.7439335      7.3209658     -0.12499095     7.0358256      162.15875    
      5660   152.71344      158.5          158.5          158.5         -3.7701431     -5.0690193     -2.1990362     -4.0423738      152.71344    
      5680   157.43702      158.5          158.5          158.5          2.905005       6.56228        3.9489217     -1.7961867      157.43702    
      5700   132.68869      158.5          158.5          158.5          1.2197104      2.6433566     -0.38645182     1.4022265      132.68869    
      5720   148.70033      158.5          158.5          158.5         -6.3233691     -9.0283149     -4.3333556     -5.608437       148.70033    
      5740   140.89121      158.5          158.5          158.5          2.6194704      4.6489707      1.6268675      1.5825731      140.89121    
      5760   139.10317      158.5          158.5          158.5         -2.5114097     -0.3599493     -6.70432       -0.46995986     139.10317    
      5780   131.48278      158.5          158.5          158.5          2.4379566      1.5092849      3.4418017      2.3627833      131.48278    
      5800   152.51324      158.5          158.5          158.5          2.1092767      0.02774253     4.5188838      1.7812038      152.51324    
      5820   133.47462      158.5          158.5          158.5         -4.1671682     -5.5471997     -5.0674372     -1.8868677      133.47462    
      5840   149.97459      158.5          158.5          158.5          1.5692324     -0.28808334     1.4372646      3.5585158      149.97459    
      5860   138.2592       158.5          158.5          158.5          0.18390719     1.9754842     -0.51092873    -0.91283389     138.2592     
      5880   147.7443       158.5          158.5          158.5         -1.1042988      0.73927142    -0.26785488    -3.7843129      147.7443     
      5900   139.36487      158.5          158.5          158.5          1.7021737      6.6539565     -1.8218367      0.27440129     139.36487    
      5920   153.66999      158.5          158.5          158.5         -1.4264472     -0.59831863    -2.2336212     -1.4474018      153.66999    
      5940   132.1981       158.5          158.5          158.5         -0.95785707    -4.5847303      3.0077858     -1.2966267      132.1981     
      5960   154.91846      158.5          158.5          158.5          1.8968405      2.8436612     -1.5136754      4.3605358      154.91846    
      5980   145.49876      158.5          158.5          158.5         -1.8711838      2.3520999     -5.9456451     -2.0200062      145.49876    
      6000   159.26929      158.5          158.5          158.5          0.35002739    -0.18215988     2.6748373     -1.4425953      159.26929    
      6020   155.21656      158.5          158.5          158.5          2.5791774      1.6508166      4.6818372      1.4048782      155.21656    
      6040   157.09027      158.5          158.5          158.5         -0.69125337     0.45739028    -2.3949836     -0.13616682     157.09027    
      6060   162.65819      158.5          158.5          158.5          1.6177699      3.1775794      1.5911697      0.084560607    162.65819    
      6080   160.06745      158.5          158.5          158.5          1.2810147      0.67037575     1.9802843      1.1923842      160.06745    
      6100   145.98149      158.5          158.5          158.5         -0.84416757    -2.2056385     -0.48403882     0.15717466     145.98149    
      6120   154.93669      158.5          158.5          158.5         -0.40157377    -4.2269065      1.7821473      1.2400379      154.93669    
      6140   142.05871      158.5          158.5          158.5         -2.5264097     -0.077988134   -5.0330644     -2.4681765      142.05871    
      6160   163.54523      158.5          158.5          158.5          0.45931049     1.6895343      1.679579      -1.9911819      163.54523    
      6180   167.0132       158.5          158.5          158.5         -1.0169234     -3.9686691      0.17607301     0.74182575     167.0132     
      6200   151.86729      158.5          158.5          158.5         -1.1523631      0.47313983    -3.5898197     -0.34040948     151.86729    
      6220   166.82218      158.5          158.5          158.5         -0.22150335     2.6500132     -2.110879      -1.2036443      166.82218    
      6240   148.36042      158.5          158.5          158.5         -1.9302105     -1.2247467     -1.5198598     -3.046025       148.36042    
      6260   165.05675      158.5          158.5          158.5          5.6893221      3.4054211      6.1930519      7.4694933      165.05675    
      6280   158.52241      158.5          158.5          158.5          1.1595681      1.7353681      0.10154763     1.6417884      158.52241    
      6300   159.71325      158.5          158.5          158.5          3.3091937      8.26085        2.8441819     -1.1774509      159.71325    
      6320   134.50864      158.5          158.5          158.5          3.245339       5.3715339      4.2900995      0.074383446    134.50864    
      6340   145.5609       158.5          158.5          158.5         -4.5680408     -7.257168      -3.5585611     -2.8883933      145.5609     
      6360   130.10378      158.5          158.5          158.5          2.2921126      1.048387       2.3268425      3.5011083      130.10378    
      6380   132.76299      158.5          158.5          158.5         -0.14950512     0.19094415    -0.98500178     0.34554226     132.76299    
      6400   124.72394      158.5          158.5          158.5         -0.79669094     1.0827156     -2.0389579     -1.4338305      124.72394    
      6420   132.46108      158.5          158.5          158.5          4.8247307      3.1785908      5.4571178      5.8384836      132.46108    
      6440   136.30443      158.5          158.5          158.5         -3.8884048     -7.558021      -3.9121513     -0.19504208     136.30443    
      6460   131.81879      158.5          158.5          158.5         -1.1875335      1.6270541     -3.904359      -1.2852957      131.81879    
      6480   121.99616      158.5          158.5          158.5          1.4578665      2.940971      -0.2408588      1.6734872      121.99616    
      6500   134.7514       158.5          158.5          158.5         -5.7289513     -9.5551133     -1.08405       -6.5476905      134.7514     
      6520   126.93781      158.5          158.5          158.5         -0.85017442    -4.2548829      1.8503987     -0.14603901     126.93781    
      6540   144.04836      158.5          158.5          158.5         -1.1092433     -0.29636987    -3.871876       0.84051592     144.04836    
      6560   136.28009      158.5          158.5          158.5         -2.7933895     -3.4916936     -2.0123978     -2.8760771      136.28009    
      6580   133.27263      158.5          158.5          158.5          2.107209      -1.4885347      5.65216        2.1580018      133.27263    
      6600   149.90035      158.5          158.5          158.5         -1.4962805      0.71876159    -3.2649912     -1.9426118      149.90035    
      6620   144.06902      158.5          158.5          158.5          0.82664243     6.0012787     -2.6366385     -0.8847129      144.06902    
      6640   139.03832      158.5          158.5          158.5          0.80470995     2.5462711     -2.5867181      2.4545768      139.03832    
      6660   143.51013      158.5          158.5          158.5         -0.55159673    -0.73360564    -1.4239147      0.50273012     143.51013    
      6680   158.47953      158.5          158.5          158.5          0.50415215    -0.15773531     1.3541106      0.31608119     158.47953    
      6700   150.36352      158.5          158.5          158.5          1.8302665      6.2772522     -1.3821112      0.59565861     150.36352    
      6720   148.86933      158.5          158.5          158.5          5.6456678      12.193306      1.2142141      3.5294832      148.86933    
      6740   155.09238      158.5          158.5          158.5         -1.9608477     -4.3612754      0.38003753    -1.9013051      155.09238    
      6760   165.10736      158.5          158.5          158.5          0.76241941    -1.7417812      1.6451854      2.3838541      165.10736    
      6780   155.82422      158.5          158.5          158.5          2.5365887      5.2978894     -1.3467277      3.6586043      155.82422    
      6800   154.15844      158.5          158.5          158.5         -3.6070145     -2.9368115     -2.351387      -5.5328451      154.15844    
      6820   146.78351      158.5          158.5          158.5          2.3810778      2.9750311      4.0915933      0.076608972    146.78351    
      6840   146.48837      158.5          158.5          158.5          2.0618993     -0.025928493    3.2271812      2.9844453      146.48837    
      6860   157.04079      158.5          158.5          158.5         -2.0144743     -4.4607111     -1.257388      -0.32532374     157.04079    
      6880   169.00382      158.5          158.5          158.5          0.91875336     1.8730065     -0.89316172     1.7764153      169.00382    
      6900   159.79797      158.5          158.5          158.5         -0.91413026    -0.72984922     0.81222597    -2.8247675      159.79797    
      6920   150.10052      158.5          158.5          158.5         -4.573638      -8.9602038      1.9824688     -6.7431791      150.10052    
      6940   163.82397      158.5          158.5          158.5          2.6732038      0.54043401     4.7098372      2.7693403      163.82397    
      6960   157.03917      158.5          158.5          158.5         -4.2897571     -3.9061061     -6.6928019     -2.2703633      157.03917    
      6980   156.58602      158.5          158.5          158.5         -2.6602021     -3.0849391     -2.476002      -2.4196653      156.58602    
      7000   147.79699      158.5          158.5          158.5          2.8931922     -3.7904406      8.0495482      4.4204691      147.79699    
      7020   146.18502      158.5          158.5          158.5         -6.685324      -12.554268     -9.532279       2.0305751      146.18502    
      7040   151.63896      158.5          158.5          158.5          1.1884063      3.139934      -0.57738578     1.0026706      151.63896    
      7060   122.40267      158.5          158.5          158.5          1.9160101      0.82848454     4.6890973      0.23044831     122.40267    
      7080   149.79177      158.5          158.5          158.5         -2.1659055     -9.7264379     -0.37347474     3.6021963      149.79177    
      7100   112.39347      158.5          158.5          158.5          4.9633962      5.0447181      2.8438326      7.0016378      112.39347    
      7120   132.57213      158.5          158.5          158.5         -0.18806191     3.7515244     -3.6309087     -0.68480145     132.57213    
      7140   132.73967      158.5          158.5          158.5         -0.98317466    -3.8519297      2.8503398     -1.9479341      132.73967    
      7160   121.3163       158.5          158.5          158.5          2.838718       1.6910715      1.6586225      5.1664598      121.3163     
      7180   132.01969      158.5          158.5          158.5         -1.4122708      3.173356      -7.2457248     -0.16444365     132.01969    
      7200   145.02453      158.5          158.5          158.5         -0.56172109     2.9694383      1.1150914     -5.7696929      145.02453    
      7220   133.78558      158.5          158.5          158.5         -0.20563365     1.0035604     -1.180853      -0.4396083      133.78558    
      7240   142.44806      158.5          158.5          158.5         -0.66322143     0.42608235    -3.6401         1.2243533      142.44806    
      7260   145.07407      158.5          158.5          158.5          1.3631664      1.7973473      0.84793228     1.4442195      145.07407    
      7280   149.5082       158.5          158.5          158.5          1.622244       5.6468325     -0.48079545    -0.29930512     149.5082     
      7300   156.38141      158.5          158.5          158.5          1.0810995      2.3730938      2.4949863     -1.6247817      156.38141    
      7320   152.9356       158.5          158.5          158.5         -0.12962057    -3.4343282      1.304619       1.7408475      152.9356     
      7340   154.37399      158.5          158.5          158.5          1.0365438      3.0592811      2.2326399     -2.1822896      154.37399    
      7360   158.42563      158.5          158.5          158.5         -1.3769456      0.53536173    -0.58950557    -4.0766929      158.42563    
      7380   174.8268       158.5          158.5          158.5         -2.1994234     -4.192865      -2.0763135     -0.32909157     174.8268     
      7400   159.8372       158.5          158.5          158.5         -1.4351286     -5.101357       1.6510486     -0.85507746     159.8372     
      7420   149.5146       158.5          158.5          158.5         -1.7992187     -1.9186046     -0.53838124    -2.9406703      149.5146     
      7440   154.43499      158.5          158.5          158.5         -0.64198197    -0.77153655    -0.14120967    -1.0131997      154.43499    
      7460   147.7744       158.5          158.5          158.5          3.2724459      1.5465672      3.5577708      4.7129997      147.7744     
      7480   151.93597      158.5          158.5          158.5         -0.39017529    -4.7129931      1.3402268      2.2022405      151.93597    
      7500   154.6819       158.5          158.5          158.5          1.003588       2.6756287      0.35015446    -0.015019188    154.6819     
      7520   150.15384      158.5          158.5          158.5          0.82240134     4.2504716      1.160993      -2.9442606      150.15384    
      7540   152.75667      158.5          158.5          158.5          0.29026171     1.4395941      0.48084129    -1.0496503      152.75667    
      7560   150.32522      158.5          158.5          158.5          1.3205314      3.6543074     -0.84163305     1.1489198      150.32522    
      7580   168.41262      158.5          158.5          158.5          1.2344962      4.0518088     -1.2704796      0.92215935     168.41262    
      7600   132.87588      158.5          158.5          158.5          0.78388011     1.3138486     -2.8520493      3.889841       132.87588    
      7620   148.87482      158.5          158.5          158.5          0.015320755   -1.5613789      0.6721948      0.93514635     148.87482    
      7640   138.24734      158.5          158.5          158.5          0.23828783    -2.480824       2.8997715      0.29591601     138.24734    
      7660   141.77942      158.5          158.5          158.5         -0.98838069    -2.2506692     -1.193352       0.47887913     141.77942    
      7680   133.43841      158.5          158.5          158.5         -0.0042425587   3.084594      -2.4158761     -0.68144553     133.43841    
      7700   136.60416      158.5          158.5          158.5          4.4242497      4.9173347      3.6727458      4.6826685      136.60416    
      7720   135.32752      158.5          158.5          158.5         -0.13835429    -1.0487034      3.742497      -3.1088564      135.32752    
      7740   139.90764      158.5          158.5          158.5          2.1831343      6.4549379     -0.37975928     0.47422432     139.90764    
      7760   122.24288      158.5          158.5          158.5          3.1797234      5.9356066     -1.0720377      4.6756014      122.24288    
      7780   118.64531      158.5          158.5          158.5         -0.41802845    -3.9701837      1.5493055      1.1667929      118.64531    
      7800   129.89425      158.5          158.5          158.5         -0.32335089     1.1846097     -0.57771692    -1.5769454      129.89425    
      7820   135.82043      158.5          158.5          158.5         -3.4736032     -0.10055815    -7.6459758     -2.6742756      135.82043    
      7840   135.07299      158.5          158.5          158.5         -1.1215528     -4.170791      -2.5862071      3.3923397      135.07299    
      7860   110.13059      158.5          158.5          158.5         -0.98389496    -4.3510438     -1.1203755      2.5197344      110.13059    
      7880   133.38954      158.5          158.5          158.5          1.6432904      3.6139842      0.29873759     1.0171493      133.38954    
      7900   126.59772      158.5          158.5          158.5         -1.5094153     -0.50028683    -3.4472936     -0.58066544     126.59772    
      7920   128.69515      158.5          158.5          158.5         -0.050512513   -2.1103812      0.42362762     1.5352161      128.69515    
      7940   119.20006      158.5          158.5          158.5          2.3731342      3.2638326      1.4569393      2.3986308      119.20006    
      7960   133.16949      158.5          158.5          158.5         -7.1137301     -6.6132638     -6.9977216     -7.7302049      133.16949    
      7980   126.18765      158.5          158.5          158.5          2.4028771      1.5442063      4.0221127      1.6423122      126.18765    
      8000   135.80014      158.5          158.5          158.5         -0.22327097    -4.2837083     -0.55330733     4.1672027      135.80014    
      8020   129.33385      158.5          158.5          158.5         -4.1651918     -9.0252989     -5.0615612      1.5912848      129.33385    
      8040   145.11843      158.5          158.5          158.5          5.3176803      7.1710226      6.3100055      2.4720127      145.11843    
      8060   139.70253      158.5          158.5          158.5         -4.2848519     -4.3435874     -2.6424479     -5.8685204      139.70253    
      8080   151.80124      158.5          158.5          158.5          0.57296656    -4.341323       1.0561198      5.0041029      151.80124    
      8100   160.00017      158.5          158.5          158.5         -0.48045332    -3.7584606     -0.39747821     2.7145789      160.00017    
      8120   148.29501      158.5          158.5          158.5         -3.2204823     -2.8614788     -3.4651479     -3.3348202      148.29501    
      8140   154.11483      158.5          158.5          158.5          3.4072517      4.7322398      2.7269022      2.7626131      154.11483    
      8160   148.90632      158.5          158.5          158.5         -2.465663      -3.3998082     -4.9172709      0.92009003     148.90632    
      8180   171.4369       158.5          158.5          158.5          3.7790137      0.49879181     4.1429877      6.6952615      171.4369     
      8200   156.50179      158.5          158.5          158.5         -0.48284581     0.35394208     1.6663235     -3.468803       156.50179    
      8220   172.25773      158.5          158.5          158.5          2.0999292      7.985607      -0.16386388    -1.5219556      172.25773    
      8240   169.70487      158.5          158.5          158.5          1.6400105      0.69752751     2.3525429      1.8699611      169.70487    
      8260   174.71824      158.5          158.5          158.5         -2.5387457     -3.3295959     -2.5509344     -1.7357069      174.71824    
      8280   156.56495      158.5          158.5          158.5          4.478668       8.6140406      3.6111004      1.210863       156.56495    
      8300   177.88233      158.5          158.5          158.5         -0.042464356   -2.1483422      2.2754752     -0.25452606     177.88233    
      8320   161.46199      158.5          158.5          158.5          0.57152502    -2.1145244     -0.42809027     4.2571897      161.46199    
      8340   161.47491      158.5          158.5          158.5          0.1933573      2.3901718      0.02839133    -1.8384912      161.47491    
      8360   150.98644      158.5          158.5          158.5         -1.0202239      1.1244234      0.15301586    -4.338111       150.98644    
      8380   167.53459      158.5          158.5          158.5          0.38059005     0.22082544    -1.8395894      2.7605341      167.53459    
      8400   160.95593      158.5          158.5          158.5         -3.7242812     -4.4484184     -4.6907122     -2.0337129      160.95593    
      8420   162.84632      158.5          158.5          158.5          1.2085633      1.7224157      1.7003035      0.20297054     162.84632    
      8440   146.5258       158.5          158.5          158.5          0.008570153   -1.3594855      2.596785      -1.2115891      146.5258     
      8460   132.69415      158.5          158.5          158.5          4.5474332      4.1203615      4.198845       5.3230932      132.69415    
      8480   149.93676      158.5          158.5          158.5          2.0307377      9.8415342     -3.1368664     -0.61245459     149.93676    
      8500   131.27773      158.5          158.5          158.5          0.18688134     0.25297576    -0.99884748     1.3065157      131.27773    
      8520   140.60287      158.5          158.5          158.5          3.6310457     -2.4553122      7.8016388      5.5468104      140.60287    
      8540   142.96832      158.5          158.5          158.5         -2.6676898     -1.76276       -0.77330969    -5.4669996      142.96832    
      8560   148.67514      158.5          158.5          158.5          1.8330379      5.0678293     -0.41614723     0.84743151     148.67514    
      8580   144.24955      158.5          158.5          158.5         -1.4099239     -3.8457052     -0.69774267     0.31367627     144.24955    
      8600   144.00927      158.5          158.5          158.5          0.65869972    -1.206468       0.5798054      2.6027617      144.00927    
      8620   134.26434      158.5          158.5          158.5          1.0982487      0.86113783     2.2038384      0.2297699      134.26434    
      8640   157.55416      158.5          158.5          158.5         -1.7351369     -1.2841624      0.3492015     -4.2704497      157.55416    
      8660   136.11662      158.5          158.5          158.5          1.4196213      0.46266601     3.4607334      0.33546457     136.11662    
      8680   148.36052      158.5          158.5          158.5         -0.48587105    -0.00067959902  0.92694621    -2.3838798      148.36052    
      8700   156.06174      158.5          158.5          158.5          0.10091083     3.9349273     -1.4331429     -2.1990519      156.06174    
      8720   151.63256      158.5          158.5          158.5          0.4531236      2.8580825      3.8824393     -5.381151       151.63256    
      8740   146.33301      158.5          158.5          158.5         -0.91921175     1.790457       0.3182645     -4.8663568      146.33301    
      8760   156.16057      158.5          158.5          158.5          2.0796268      1.2091211     -1.8911066      6.9208659      156.16057    
      8780   141.20197      158.5          158.5          158.5          0.63424105    -2.9461758      0.95492296     3.893976       141.20197    
      8800   160.41406      158.5          158.5          158.5         -1.7567179      0.51889018    -0.0068907265  -5.7821533      160.41406    
      8820   161.27076      158.5          158.5          158.5         -1.6726633      0.27508046    -2.7804999     -2.5125704      161.27076    
      8840   169.03422      158.5          158.5          158.5         -1.7871735     -4.411811      -3.8088961      2.8591867      169.03422    
      8860   155.3875       158.5          158.5          158.5          0.22942132    -2.890794       0.97535662     2.6037013      155.3875     
      8880   163.52965      158.5          158.5          158.5          1.4210743      0.21692484     2.9154756      1.1308225      163.52965    
      8900   156.81112      158.5          158.5          158.5         -0.45356913    -0.71842888     0.34860228    -0.9908808      156.81112    
      8920   165.99005      158.5          158.5          158.5          4.2371415      0.37073445     5.3446047      6.9960854      165.99005    
      8940   142.9034       158.5          158.5          158.5          1.1783187     -3.9823307      4.5318113      2.9854754      142.9034     
      8960   163.92365      158.5          158.5          158.5         -1.3682547     -3.5669055      1.4600684     -1.997927       163.92365    
      8980   142.44031      158.5          158.5          158.5          2.1782572      1.9301451      4.1545933      0.45003326     142.44031    
      9000   150.0344       158.5          158.5          158.5         -2.3259117     -4.0055624     -1.651358      -1.3208147      150.0344     
      9020   148.30336      158.5          158.5          158.5         -2.005347      -6.0533987     -2.7554609      2.7928185      148.30336    
      9040   132.426        158.5          158.5          158.5          1.2607372     -0.63531558     4.8236304     -0.40610321     132.426      
      9060   134.03314      158.5          158.5          158.5          0.41176669     3.5297645     -0.32399036    -1.970474       134.03314    
      9080   113.81453      158.5          158.5          158.5          3.7115924      6.5300589      0.28242574     4.3222925      113.81453    
      9100   134.79715      158.5          158.5          158.5          1.0185436     -2.3667614      3.5159913      1.9064009      134.79715    
      9120   138.11936      158.5          158.5          158.5         -1.2991192      1.8369024      0.09577057    -5.8300306      138.11936    
      9140   138.85061      158.5          158.5          158.5         -0.016015598    3.5401875     -0.29496454    -3.2932697      138.85061    
      9160   144.02869      158.5          158.5          158.5         -3.2601739     -5.4484163     -2.6939675     -1.6381381      144.02869    
      9180   137.11755      158.5          158.5          158.5         -0.39098745    -1.4322832     -0.76480257     1.0241234      137.11755    
      9200   119.9678       158.5          158.5          158.5         -0.69724339    -0.19233625    -1.0517682     -0.84762574     119.9678     
      9220   146.06483      158.5          158.5          158.5         -1.6752181      0.0083907021  -0.70471951    -4.3293254      146.06483    
      9240   130.40398      158.5          158.5          158.5          2.6058228      2.9380535      2.8167223      2.0626925      130.40398    
      9260   133.97049      158.5          158.5          158.5         -3.0868969     -6.7112421     -4.7848669      2.2354183      133.97049    
      9280   155.93681      158.5          158.5          158.5         -1.1442609     -2.1066753      1.4468264     -2.7729338      155.93681    
      9300   143.10385      158.5          158.5          158.5         -1.5968951     -1.2657577      4.478705      -8.0036327      143.10385    
      9320   168.87803      158.5          158.5          158.5         -3.0343397     -3.6391795     -2.8877493     -2.5760902      168.87803    
      9340   151.73082      158.5          158.5          158.5          0.62803467    -0.70556968    -0.84061409     3.4302878      151.73082    
      9360   157.85856      158.5          158.5          158.5          1.4351361     -1.075179       4.9389545      0.44163278     157.85856    
      9380   154.66309      158.5          158.5          158.5          3.3785441      0.65847979     5.1903199      4.2868327      154.66309    
      9400   153.93311      158.5          158.5          158.5          1.7727962      5.9544636     -2.4186066      1.7825318      153.93311    
      9420   153.60007      158.5          158.5          158.5         -1.8235888      0.54612184    -1.0792904     -4.9375978      153.60007    
      9440   148.05396      158.5          158.5          158.5         -1.7843359     -1.3523489     -1.5898093     -2.4108495      148.05396    
      9460   157.37033      158.5          158.5          158.5         -0.043252999    1.9759248     -3.8478181      1.7421344      157.37033    
      9480   155.47963      158.5          158.5          158.5          0.11184091     0.32591084     0.13093189    -0.12132001     155.47963    
      9500   156.61444      158.5          158.5          158.5         -1.339784      -3.9412008     -0.4684113      0.39026008     156.61444    
      9520   165.1651       158.5          158.5          158.5         -0.19120761    -2.6023008      0.47673426     1.5519437      165.1651     
      9540   155.97039      158.5          158.5          158.5         -0.44188166     2.4249186     -2.2950088     -1.4555547      155.97039    
[...]
     98440   118.08525      158.5          158.5          158.5          1.7475113      1.8290888      2.0455094      1.3679357      118.08525    
     98460   123.98523      158.5          158.5          158.5         -5.1596503     -4.7902355     -5.1333005     -5.555415       123.98523    
     98480   113.51204      158.5          158.5          158.5          4.3454734      5.8986375      2.8773539      4.2604288      113.51204    
     98500   109.53958      158.5          158.5          158.5          1.3173707      0.026828614    1.7286546      2.1966289      109.53958    
     98520   112.48535      158.5          158.5          158.5          1.8768113      2.106202       1.8868181      1.6374137      112.48535    
     98540   129.58493      158.5          158.5          158.5          3.6854034      6.1578401      2.0674468      2.8309233      129.58493    
     98560   125.45625      158.5          158.5          158.5         -0.88338216    -0.0055452185  -0.26616866    -2.3784326      125.45625    
     98580   121.29589      158.5          158.5          158.5         -2.4444079     -3.1242971     -4.8305864      0.62165964     121.29589    
     98600   131.47213      158.5          158.5          158.5         -3.4311041     -4.6782453     -5.4360882     -0.17897888     131.47213    
     98620   119.50283      158.5          158.5          158.5         -1.0088195     -0.36787817    -0.75103287    -1.9075475      119.50283    
     98640   131.86292      158.5          158.5          158.5         -3.878573      -3.4582355     -7.3581807     -0.81930281     131.86292    
     98660   130.51088      158.5          158.5          158.5          1.328446       1.1147713     -2.8422951      5.7128619      130.51088    
     98680   132.35228      158.5          158.5          158.5         -0.65986334     3.0656105     -3.1162943     -1.9289062      132.35228    
     98700   138.84313      158.5          158.5          158.5          0.55702412     4.8634613      0.2429574     -3.4353463      138.84313    
     98720   145.87155      158.5          158.5          158.5          2.8658126      1.1371853      4.1831667      3.2770858      145.87155    
     98740   158.97834      158.5          158.5          158.5         -2.6606571     -4.0394492     -1.5734451     -2.3690769      158.97834    
     98760   151.25855      158.5          158.5          158.5          4.2935981      5.0428724      6.8321576      1.0057643      151.25855    
     98780   147.89176      158.5          158.5          158.5          1.5728186      4.4292786      2.1109226     -1.8217454      147.89176    
     98800   145.20539      158.5          158.5          158.5         -0.60783167    -0.60557861    -1.6334757      0.41555926     145.20539    
     98820   148.2761       158.5          158.5          158.5          1.0351606     -1.8674322      3.4285426      1.5443714      148.2761     
     98840   144.22021      158.5          158.5          158.5         -4.3749201     -8.1161509      0.20736574    -5.2159752      144.22021    
     98860   143.33503      158.5          158.5          158.5          0.36247481     0.54725972     0.60089945    -0.060734753    143.33503    
     98880   152.62421      158.5          158.5          158.5         -4.7607461     -4.2717001     -5.762976      -4.2475624      152.62421    
     98900   129.14233      158.5          158.5          158.5          0.21519849    -3.5723728      2.5560883      1.66188        129.14233    
     98920   128.89559      158.5          158.5          158.5         -0.55685186    -0.80182353    -0.70202537    -0.16670668     128.89559    
     98940   132.36858      158.5          158.5          158.5         -2.1995263      3.7025289     -8.1719572     -2.1291507      132.36858    
     98960   132.2026       158.5          158.5          158.5          1.4039885      0.82308602     0.0054304893   3.3834489      132.2026     
     98980   134.06762      158.5          158.5          158.5         -3.638318      -6.5696217     -1.2390472     -3.1062852      134.06762    
     99000   134.99195      158.5          158.5          158.5          2.2489712      3.5128415      2.079616       1.1544562      134.99195    
     99020   122.83526      158.5          158.5          158.5         -0.12931759     4.5207297     -2.2289558     -2.6797267      122.83526    
     99040   134.38117      158.5          158.5          158.5          0.95468022     3.3987834      0.42557723    -0.96031995     134.38117    
     99060   115.41952      158.5          158.5          158.5          2.9539187      3.5555897      3.2566901      2.0494765      115.41952    
     99080   147.81587      158.5          158.5          158.5         -2.9081653     -3.7929092     -4.1672424     -0.76434446     147.81587    
     99100   123.80512      158.5          158.5          158.5          1.8626667      3.5109876     -0.46929131     2.5463039      123.80512    
     99120   123.79701      158.5          158.5          158.5         -1.2248029      1.7859395     -0.51496425    -4.9453838      123.79701    
     99140   139.54029      158.5          158.5          158.5         -0.3679363     -1.3730256      1.3584452     -1.0892284      139.54029    
     99160   132.95215      158.5          158.5          158.5          2.2554316      2.0118008      1.6190882      3.1354058      132.95215    
     99180   141.90858      158.5          158.5          158.5         -2.5871357      0.12165457    -4.5566148     -3.3264469      141.90858    
     99200   131.64848      158.5          158.5          158.5          3.1419622      7.1262694      2.1162635      0.18335371     131.64848    
     99220   133.85005      158.5          158.5          158.5          2.1778639      2.8795134      2.0817054      1.5723729      133.85005    
     99240   132.38036      158.5          158.5          158.5          0.58486217    -0.49369476     2.5107006     -0.26241929     132.38036    
     99260   134.82945      158.5          158.5          158.5          3.50733        7.1663655      3.837011      -0.48138637     134.82945    
     99280   145.42549      158.5          158.5          158.5          1.6779552     -1.6140195      4.4609759      2.1869092      145.42549    
     99300   129.49329      158.5          158.5          158.5         -3.471569      -10.70504       2.8533232     -2.5629903      129.49329    
     99320   137.33894      158.5          158.5          158.5          1.1928561     -3.2866995      4.8319695      2.0332982      137.33894    
     99340   147.29616      158.5          158.5          158.5         -0.14864796     3.714425      -4.1465461     -0.013822768    147.29616    
     99360   129.62489      158.5          158.5          158.5         -0.52341131     2.7646922     -2.0431701     -2.291756       129.62489    
     99380   139.61623      158.5          158.5          158.5          4.2000882      0.44978878     7.4156161      4.7348597      139.61623    
     99400   124.92139      158.5          158.5          158.5         -2.8333138     -7.1474899      0.099152276   -1.4516037      124.92139    
     99420   128.33334      158.5          158.5          158.5         -2.8058076     -0.99538497    -6.2525857     -1.1694521      128.33334    
     99440   132.08165      158.5          158.5          158.5         -0.93351069    -3.7963657      0.8903185      0.10551511     132.08165    
     99460   115.95938      158.5          158.5          158.5         -6.2895644     -12.269799     -1.7514994     -4.8473943      115.95938    
     99480   118.49941      158.5          158.5          158.5          3.090922       2.9290367     -0.082955157    6.4266843      118.49941    
     99500   122.60137      158.5          158.5          158.5         -0.44102184     2.5874699     -4.3078834      0.39734793     122.60137    
     99520   113.48978      158.5          158.5          158.5         -2.9451497     -6.2225995     -0.2845757     -2.328274       113.48978    
     99540   127.81294      158.5          158.5          158.5          0.62146351    -2.5847757      3.0146745      1.4344918      127.81294    
     99560   120.12206      158.5          158.5          158.5         -6.219172      -4.2403364     -6.0684101     -8.3487696      120.12206    
     99580   105.33924      158.5          158.5          158.5         -0.10032239     3.2793518     -1.2867681     -2.2935509      105.33924    
     99600   117.92321      158.5          158.5          158.5          2.586322       3.2366394      1.0584726      3.4638538      117.92321    
     99620   132.83831      158.5          158.5          158.5          0.98786152     0.52077629     1.9294658      0.51334244     132.83831    
     99640   123.97602      158.5          158.5          158.5          5.5658902      7.5943164      4.3620088      4.7413455      123.97602    
     99660   124.38685      158.5          158.5          158.5          1.5654994      2.5326839     -0.32931148     2.4931257      124.38685    
     99680   133.34694      158.5          158.5          158.5          0.50092744     1.2390896      3.3137507     -3.050058       133.34694    
     99700   119.75597      158.5          158.5          158.5          0.41256418    -0.23311476     4.2569415     -2.7861342      119.75597    
     99720   135.34074      158.5          158.5          158.5         -2.7109044     -4.6536974     -1.7252405     -1.7537751      135.34074    
     99740   140.72759      158.5          158.5          158.5          1.4682799      1.9300543     -2.0523774      4.5271627      140.72759    
     99760   125.78662      158.5          158.5          158.5          1.4767155     -0.35203122     3.351884       1.4302939      125.78662    
     99780   127.77778      158.5          158.5          158.5          1.2316782     -3.1559108      7.8335824     -0.98263709     127.77778    
     99800   132.16294      158.5          158.5          158.5          4.1042074      3.710627       4.1173121      4.4846831      132.16294    
     99820   128.17438      158.5          158.5          158.5          0.58667207     2.4428636     -5.0161683      4.3333209      128.17438    
     99840   118.0319       158.5          158.5          158.5         -0.40753654    -0.17083935    -0.49263188    -0.55913839     118.0319     
     99860   139.71653      158.5          158.5          158.5         -1.4409481     -7.9034618      3.7960138     -0.21539644     139.71653    
     99880   136.27729      158.5          158.5          158.5         -2.4514859     -5.9663544     -1.5706221      0.18251884     136.27729    
     99900   143.29752      158.5          158.5          158.5         -1.3305234      1.7850461     -3.1198893     -2.656727       143.29752    
     99920   122.01221      158.5          158.5          158.5         -4.0159715     -11.006618      0.80131185    -1.8426082      122.01221    
     99940   112.7895       158.5          158.5          158.5          1.8028091     -6.9532144      5.9085523      6.4530895      112.7895     
     99960   117.31202      158.5          158.5          158.5         -0.77348797     1.3693127     -4.0646424      0.3748658      117.31202    
     99980   134.34124      158.5          158.5          158.5          0.056132127    2.6345398     -0.91557717    -1.5505662      134.34124    
    100000   118.7627       158.5          158.5          158.5          3.3169958     -0.49438857     5.1836289      5.2617471      118.7627     
    100020   118.65619      158.5          158.5          158.5         -2.8113345     -4.9649942     -4.2912124      0.82220296     118.65619    
    100040   98.15931       158.5          158.5          158.5          2.8292603      2.5820591      3.0169414      2.8887806      98.15931     
    100060   132.67696      158.5          158.5          158.5         -2.7051196     -4.8527064      0.38984055    -3.6524928      132.67696    
    100080   114.40136      158.5          158.5          158.5         -2.0434741     -3.7802477     -1.858678      -0.49149659     114.40136    
    100100   111.01665      158.5          158.5          158.5          1.3151571     -4.2089         4.086056       4.0683152      111.01665    
    100120   102.25066      158.5          158.5          158.5         -4.1012525     -6.4562296     -3.0405676     -2.8069602      102.25066    
    100140   119.70243      158.5          158.5          158.5          4.9664197      9.9364797      1.3784266      3.5843528      119.70243    
    100160   101.84047      158.5          158.5          158.5          2.6640589      4.0410838      3.2173187      0.73377414     101.84047    
    100180   116.02717      158.5          158.5          158.5         -1.0205584     -3.9244778      1.1581034     -0.29530076     116.02717    
    100200   108.81152      158.5          158.5          158.5          2.6694767      1.387288       1.9137932      4.707349       108.81152    
    100220   112.98138      158.5          158.5          158.5         -1.4791551      1.8490405     -3.3790568     -2.9074491      112.98138    
    100240   107.85285      158.5          158.5          158.5          1.7551738      2.5804995      2.9040546     -0.21903272     107.85285    
    100260   121.80177      158.5          158.5          158.5         -0.7663337     -4.6536814      2.5002469     -0.14556658     121.80177    
    100280   110.07132      158.5          158.5          158.5         -0.9873313     -2.4195054     -0.70610884     0.16362038     110.07132    
    100300   112.94285      158.5          158.5          158.5         -1.8358644     -0.61888969    -2.0475211     -2.8411824      112.94285    
    100320   121.86241      158.5          158.5          158.5         -1.4344163      1.2004169     -2.3857173     -3.1179484      121.86241    
    100340   129.35226      158.5          158.5          158.5         -1.5578915     -2.9144149     -0.64869496    -1.1105647      129.35226    
    100360   98.9294        158.5          158.5          158.5         -1.4013976     -2.0255187     -2.044641      -0.13403307     98.9294      
    100380   122.59481      158.5          158.5          158.5          0.12381282    -1.6754719      0.90578824     1.1411221      122.59481    
    100400   115.56225      158.5          158.5          158.5         -1.0968361     -3.9906252      2.5885309     -1.8884141      115.56225    
    100420   130.7217       158.5          158.5          158.5          1.1163127      0.38471838     2.1062239      0.85799565     130.7217     
    100440   123.28089      158.5          158.5          158.5         -0.99293081    -3.0430756     -1.2144729      1.2787561      123.28089    
    100460   134.27537      158.5          158.5          158.5         -3.7234943     -6.29561       -2.837251      -2.0376218      134.27537    
    100480   135.27113      158.5          158.5          158.5          0.92583952    -0.20104486     2.0523469      0.9262165      135.27113    
    100500   142.91045      158.5          158.5          158.5         -2.3187843     -5.741264      -1.9317963      0.71670745     142.91045    
    100520   121.20196      158.5          158.5          158.5          0.43054134     1.750233      -1.5501901      1.0915812      121.20196    
    100540   124.08191      158.5          158.5          158.5          5.0887022      6.3445215      4.0793324      4.8422529      124.08191    
    100560   128.16173      158.5          158.5          158.5         -0.15334975     2.1896036      0.47192275    -3.1215756      128.16173    
    100580   145.95976      158.5          158.5          158.5          0.36597716     0.18627088    -0.1466376      1.0582982      145.95976    
    100600   151.75505      158.5          158.5          158.5          2.3633659     -0.41970616     2.5235928      4.9862111      151.75505    
    100620   148.25609      158.5          158.5          158.5         -1.255855       2.5245439     -3.3577637     -2.9343453      148.25609    
    100640   142.75291      158.5          158.5          158.5          2.0965428      10.387532     -3.2664342     -0.83146937     142.75291    
    100660   145.66838      158.5          158.5          158.5          1.9387177      4.2296045      2.3145946     -0.72804588     145.66838    
    100680   152.80306      158.5          158.5          158.5         -1.8802759     -0.94816898    -1.8347286     -2.8579303      152.80306    
    100700   141.06844      158.5          158.5          158.5          3.867901       1.4314127      2.4344013      7.7378889      141.06844    
    100720   129.23146      158.5          158.5          158.5          1.8241143      0.88704738     1.9094111      2.6758846      129.23146    
    100740   147.37874      158.5          158.5          158.5         -3.1959328      1.0949643     -2.7709049     -7.9118578      147.37874    
    100760   140.79456      158.5          158.5          158.5          2.0033558      2.2995895      0.38229111     3.3281868      140.79456    
    100780   138.83291      158.5          158.5          158.5         -1.2659784      0.48211683    -5.563252       1.2832         138.83291    
    100800   132.45182      158.5          158.5          158.5         -1.4896026      2.2788308     -0.55401844    -6.1936202      132.45182    
    100820   125.56504      158.5          158.5          158.5          1.5896033      1.3405886      4.9374666     -1.5092452      125.56504    
    100840   126.31599      158.5          158.5          158.5         -2.5379158     -3.6096886     -2.215154      -1.7889049      126.31599    
    100860   119.26673      158.5          158.5          158.5         -0.58277739    -4.5706857      0.261757       2.5605966      119.26673    
    100880   111.52529      158.5          158.5          158.5          1.272336      -2.1596362      4.3496374      1.6270067      111.52529    
    100900   121.98869      158.5          158.5          158.5         -3.4586398     -4.7036272     -2.6812906     -2.9910017      121.98869    
    100920   110.65378      158.5          158.5          158.5         -0.9478227     -0.94005629    -2.1120073      0.20859548     110.65378    
    100922   112.59988      158.5          158.5          158.5         -2.5910978     -2.0373677     -2.9560307     -2.779895       112.59988    
Loop time of 6.09135 on 1 procs for 100000 steps with 100 atoms

Performance: 1418.405 ns/day, 0.017 hours/ns, 16416.719 timesteps/s, 1.642 Matom-step/s
86.1% CPU use with 1 MPI tasks x no OpenMP threads

MPI task timing breakdown:
Section |  min time  |  avg time  |  max time  |%varavg| %total
---------------------------------------------------------------
Pair    | 3.3134     | 3.3134     | 3.3134     |   0.0 | 54.39
Bond    | 1.4983     | 1.4983     | 1.4983     |   0.0 | 24.60
Neigh   | 0.62079    | 0.62079    | 0.62079    |   0.0 | 10.19
Comm    | 0.028155   | 0.028155   | 0.028155   |   0.0 |  0.46
Output  | 0.31219    | 0.31219    | 0.31219    |   0.0 |  5.13
Modify  | 0.2649     | 0.2649     | 0.2649     |   0.0 |  4.35
Other   |            | 0.05367    |            |       |  0.88

Nlocal:            100 ave         100 max         100 min
Histogram: 1 0 0 0 0 0 0 0 0 0
Nghost:              0 ave           0 max           0 min
Histogram: 1 0 0 0 0 0 0 0 0 0
Neighs:           2220 ave        2220 max        2220 min
Histogram: 1 0 0 0 0 0 0 0 0 0
FullNghs:            0 ave           0 max           0 min
Histogram: 1 0 0 0 0 0 0 0 0 0

Total # of neighbors = 2220
Ave neighs/atom = 22.2
Ave special neighs/atom = 5.88
Neighbor list builds = 5554
Dangerous builds = 1109
print "All done"
All done
Total wall time: 0:00:41
