read_data	InitialFile.txt
Reading data file ...
  orthogonal box = (0 0 0) to (158.5 158.5 158.5)
  1 by 1 by 1 MPI processor grid
WARNING: Atom style in data file atomic differs from currently defined atom style molecular (src/src/read_data.cpp:621)
  reading atoms ...
  100 atoms
  scanning bonds ...
  1 = max bonds/atom
  scanning angles ...
  1 = max angles/atom
  scanning dihedrals ...
  1 = max dihedrals/atom
  reading bonds ...
  99 bonds
  reading angles ...
  98 angles
  reading dihedrals ...
  97 dihedrals
Finding 1-2 1-3 1-4 neighbors ...
  special bond factors lj:    0        0        0       
  special bond factors coul:  0        0        0       
     2 = max # of 1-2 neighbors
     2 = max # of 1-3 neighbors
     4 = max # of 1-4 neighbors
     6 = max # of special neighbors
  special bonds CPU = 0.012 seconds
  read_data CPU = 0.040 seconds

# Dreiding potential information
neighbor	0.4 bin
neigh_modify	every 10 one 10000

bond_style      harmonic
bond_coeff	1 350 1.53
bond_coeff	2 700 1.53

angle_style     harmonic
angle_coeff	1 60 109.5
angle_coeff	2 120 109.5

dihedral_style	multi/harmonic
dihedral_coeff	1 1.73 -4.49 0.776 6.99 0.0
dihedral_coeff	2 1.73 -4.49 0.776 6.99 0.0

pair_style	lj/cut 10.5


pair_coeff	* * 0.112 4.01 10.5
pair_coeff	3 3 0.012 8 10.5


compute csym all centro/atom fcc
compute peratom all pe/atom



#####################################################
# Equilibration (Brownian dynamics at 300 K)

velocity 	all create 300.0 1231
fix		1 all nve/limit 0.05
fix 2 all brownian 300.0 12908410 gamma_t 1.0 rng gaussian
thermo_style	custom step temp
thermo          10000
timestep	1
run		1000000
Generated 0 of 3 mixed pair_coeff terms from geometric mixing rule
WARNING: One or more atoms are time integrated more than once (src/src/modify.cpp:289)
Neighbor list info ...
  update: every = 10 steps, delay = 0 steps, check = yes
  max neighbors/atom: 10000, page size: 100000
  master list distance cutoff = 10.9
  ghost atom cutoff = 10.9
  binsize = 5.45, bins = 30 30 30
  2 neighbor lists, perpetual/occasional/extra = 1 1 0
  (1) pair lj/cut, perpetual
      attributes: half, newton on
      pair build: half/bin/newton
      stencil: half/bin/3d
      bin: standard
  (2) compute centro/atom, occasional
      attributes: full, newton on
      pair build: full/bin
      stencil: full/bin/3d
      bin: standard
Per MPI rank memory allocation (min/avg/max) = 8.15 | 8.15 | 8.15 Mbytes
   Step          Temp     
         0   300          
     10000   8939.1581    
     20000   8709.3054    
     30000   9792.6506    
     40000   9008.4607    
     50000   8927.0851    
     60000   9374.5412    
     70000   9654.5018    
     80000   8376.3891    
     90000   10363.406    
    100000   9609.367     
    110000   9033.5013    
    120000   9375.3352    
    130000   9423.8074    
    140000   9360.4705    
    150000   8639.2516    
    160000   9047.0961    
    170000   9254.379     
    180000   9968.4437    
    190000   9766.5085    
    200000   8989.0487    
    210000   9621.4697    
    220000   8759.3725    
    230000   9277.4849    
    240000   9745.1154    
    250000   10219.731    
    260000   8617.0394    
    270000   9270.31      
    280000   9058.4701    
    290000   8564.0202    
    300000   9363.4689    
    310000   8650.0287    
    320000   10750.134    
    330000   9110.2921    
    340000   9928.698     
    350000   8943.7005    
    360000   9951.9598    
    370000   9050.151     
    380000   8996.988     
    390000   9556.46      
    400000   9437.3364    
    410000   8615.8595    
    420000   8990.5179    
    430000   8821.3268    
    440000   9258.7       
    450000   10001.122    
    460000   9525.9694    
    470000   9292.8772    
    480000   9266.2498    
    490000   9075.1391    
    500000   9063.3313    
    510000   9792.481     
    520000   9451.6311    
    530000   8815.622     
    540000   8925.565     
    550000   8857.5145    
    560000   9571.2707    
    570000   9517.0932    
    580000   9612.1231    
    590000   9883.6508    
    600000   9882.7671    
    610000   9942.8917    
    620000   8545.3413    
    630000   9397.5546    
    640000   10313.215    
    650000   9887.3982    
    660000   9254.4706    
    670000   9352.7088    
    680000   9800.7379    
    690000   9051.3355    
    700000   9885.2477    
    710000   9483.556     
    720000   9554.8568    
    730000   8130.3062    
    740000   9825.5297    
    750000   9942.7004    
    760000   9335.1676    
    770000   9410.3904    
    780000   9390.464     
    790000   9326.3041    
    800000   8766.292     
    810000   9954.2165    
    820000   8885.1902    
    830000   8940.4189    
    840000   8552.2072    
    850000   9732.0059    
    860000   8730.4287    
    870000   9068.6008    
    880000   9522.2707    
    890000   8412.027     
    900000   9601.7627    
    910000   10225.812    
    920000   9451.3255    
    930000   9702.0158    
    940000   9213.3585    
    950000   9640.5025    
    960000   9486.2455    
    970000   8975.9157    
    980000   9311.4041    
    990000   7912.1449    
   1000000   8962.3487    
Loop time of 38.4406 on 1 procs for 1000000 steps with 100 atoms

Performance: 2247.626 ns/day, 0.011 hours/ns, 26014.188 timesteps/s, 2.601 Matom-step/s
94.7% CPU use with 1 MPI tasks x no OpenMP threads

MPI task timing breakdown:
Section |  min time  |  avg time  |  max time  |%varavg| %total
---------------------------------------------------------------
Pair    | 8.5104     | 8.5104     | 8.5104     |   0.0 | 22.14
Bond    | 14.148     | 14.148     | 14.148     |   0.0 | 36.81
Neigh   | 5.8269     | 5.8269     | 5.8269     |   0.0 | 15.16
Comm    | 0.22816    | 0.22816    | 0.22816    |   0.0 |  0.59
Output  | 0.0028007  | 0.0028007  | 0.0028007  |   0.0 |  0.01
Modify  | 9.2807     | 9.2807     | 9.2807     |   0.0 | 24.14
Other   |            | 0.4434     |            |       |  1.15

Nlocal:            100 ave         100 max         100 min
Histogram: 1 0 0 0 0 0 0 0 0 0
Nghost:              0 ave           0 max           0 min
Histogram: 1 0 0 0 0 0 0 0 0 0
Neighs:            611 ave         611 max         611 min
Histogram: 1 0 0 0 0 0 0 0 0 0
FullNghs:            0 ave           0 max           0 min
Histogram: 1 0 0 0 0 0 0 0 0 0

Total # of neighbors = 611
Ave neighs/atom = 6.11
Ave special neighs/atom = 5.88
Neighbor list builds = 100000
Dangerous builds = 100000
unfix 1
unfix 2
write_restart 	restart.${simname}.dreiding1
write_restart 	restart.InitialFile.dreiding1
System init for write_restart ...
Generated 0 of 3 mixed pair_coeff terms from geometric mixing rule


#####################################################
# Define Settings
compute eng all pe/atom
compute eatoms all reduce sum c_eng

#####################################################
# Minimization

dump mydmp all atom 100 dump.lammpstrj

reset_timestep 0
fix 1 all nvt temp 300.0 300.0 100.0
thermo 20
thermo_style custom step pe lx ly lz press pxx pyy pzz c_eatoms
min_style cg
minimize 1e-25 1e-25 500000 1000000
Switching to 'neigh_modify every 1 delay 0 check yes' setting during minimization
Generated 0 of 3 mixed pair_coeff terms from geometric mixing rule
Per MPI rank memory allocation (min/avg/max) = 9.275 | 9.275 | 9.275 Mbytes
   Step         PotEng           Lx             Ly             Lz           Press           Pxx            Pyy            Pzz          c_eatoms   
         0   247.8526       158.5          158.5          158.5          31.280459      25.224695      30.56078       38.055902      247.8526     
        20   77.009511      158.5          158.5          158.5          30.545293      25.615983      31.269892      34.750003      77.009511    
        40   70.237137      158.5          158.5          158.5          30.703141      25.854268      31.237826      35.017328      70.237137    
        60   67.69078       158.5          158.5          158.5          30.630568      26.104747      30.805636      34.981322      67.69078     
        80   66.086013      158.5          158.5          158.5          30.554774      26.071347      30.619937      34.973039      66.086013    
       100   64.893884      158.5          158.5          158.5          30.604308      26.095761      30.789357      34.927806      64.893884    
       120   63.875021      158.5          158.5          158.5          30.719778      26.078564      31.011863      35.068907      63.875021    
       140   63.237294      158.5          158.5          158.5          30.535763      25.971091      30.728867      34.907331      63.237294    
       160   62.770335      158.5          158.5          158.5          30.56084       26.108366      30.716794      34.85736       62.770335    
       180   62.348108      158.5          158.5          158.5          30.457483      25.918616      30.623175      34.830657      62.348108    
       200   61.994889      158.5          158.5          158.5          30.646637      26.073941      30.842999      35.022971      61.994889    
       220   61.499553      158.5          158.5          158.5          30.625653      26.03955       30.801669      35.035741      61.499553    
       240   61.131669      158.5          158.5          158.5          30.41901       25.961847      30.484669      34.810513      61.131669    
       260   60.870679      158.5          158.5          158.5          30.387657      25.908246      30.499528      34.755199      60.870679    
       280   60.653725      158.5          158.5          158.5          30.426431      25.939209      30.654957      34.685127      60.653725    
       300   60.437921      158.5          158.5          158.5          30.444995      25.955944      30.642717      34.736323      60.437921    
       320   60.351449      158.5          158.5          158.5          30.401484      25.846663      30.659572      34.698217      60.351449    
       340   60.247788      158.5          158.5          158.5          30.389661      25.786015      30.606879      34.776089      60.247788    
       360   60.151052      158.5          158.5          158.5          30.409715      25.829362      30.561534      34.838249      60.151052    
       380   60.034509      158.5          158.5          158.5          30.530389      25.913542      30.832427      34.845199      60.034509    
       400   59.924119      158.5          158.5          158.5          30.442049      25.82644       30.683969      34.815738      59.924119    
       420   59.829869      158.5          158.5          158.5          30.265865      25.699761      30.435428      34.662406      59.829869    
       440   59.703831      158.5          158.5          158.5          30.442936      25.943579      30.662498      34.72273       59.703831    
       460   59.538635      158.5          158.5          158.5          30.455005      26.005712      30.637623      34.721679      59.538635    
       480   59.376288      158.5          158.5          158.5          30.33194       25.794296      30.522509      34.679017      59.376288    
       500   59.121238      158.5          158.5          158.5          30.352655      25.759264      30.610217      34.688484      59.121238    
       520   58.92015       158.5          158.5          158.5          30.29357       25.761749      30.531646      34.587314      58.92015     
       540   58.809759      158.5          158.5          158.5          30.297219      25.734093      30.503538      34.654026      58.809759    
       560   58.617104      158.5          158.5          158.5          30.207241      25.621954      30.394298      34.605471      58.617104    
       580   58.426406      158.5          158.5          158.5          30.209083      25.640839      30.342922      34.643487      58.426406    
       600   58.325121      158.5          158.5          158.5          30.317487      25.81948       30.428249      34.704731      58.325121    
       620   58.262611      158.5          158.5          158.5          30.304309      25.78192       30.411939      34.719069      58.262611    
       640   58.207576      158.5          158.5          158.5          30.33083       25.775673      30.49991       34.716909      58.207576    
       660   58.158133      158.5          158.5          158.5          30.355608      25.79795       30.54983       34.719043      58.158133    
       680   58.119098      158.5          158.5          158.5          30.387744      25.874372      30.539001      34.74986       58.119098    
       700   58.071283      158.5          158.5          158.5          30.402208      25.846816      30.560671      34.799136      58.071283    
       720   57.997966      158.5          158.5          158.5          30.426412      25.859667      30.596994      34.822574      57.997966    
       740   57.931031      158.5          158.5          158.5          30.372228      25.835908      30.539845      34.74093       57.931031    
       760   57.848269      158.5          158.5          158.5          30.369466      25.830789      30.539105      34.738504      57.848269    
       780   57.759342      158.5          158.5          158.5          30.360212      25.782604      30.563484      34.734548      57.759342    
       800   57.675246      158.5          158.5          158.5          30.383644      25.844122      30.540046      34.766765      57.675246    
       820   57.601097      158.5          158.5          158.5          30.398883      25.878181      30.578792      34.739676      57.601097    
       840   57.510638      158.5          158.5          158.5          30.412181      25.837447      30.632798      34.766299      57.510638    
       860   57.43586       158.5          158.5          158.5          30.380499      25.797063      30.593486      34.750948      57.43586     
       880   57.382845      158.5          158.5          158.5          30.382015      25.800144      30.581137      34.764763      57.382845    
       900   57.33179       158.5          158.5          158.5          30.404855      25.855822      30.605925      34.752818      57.33179     
       920   57.309365      158.5          158.5          158.5          30.392312      25.826293      30.583289      34.767354      57.309365    
       940   57.262124      158.5          158.5          158.5          30.375725      25.780609      30.617914      34.72865       57.262124    
       960   57.20267       158.5          158.5          158.5          30.413442      25.848962      30.63284       34.758524      57.20267     
       980   57.172612      158.5          158.5          158.5          30.42611       25.857812      30.599174      34.821343      57.172612    
      1000   57.134531      158.5          158.5          158.5          30.42316       25.819524      30.654009      34.795947      57.134531    
      1020   57.097005      158.5          158.5          158.5          30.406536      25.836185      30.631919      34.751505      57.097005    
      1040   57.057988      158.5          158.5          158.5          30.3895        25.854463      30.567125      34.746911      57.057988    
      1060   57.009265      158.5          158.5          158.5          30.427392      25.872712      30.621599      34.787864      57.009265    
      1080   56.964089      158.5          158.5          158.5          30.419348      25.810422      30.672149      34.775471      56.964089    
      1100   56.928328      158.5          158.5          158.5          30.345718      25.743735      30.578929      34.714492      56.928328    
      1120   56.894391      158.5          158.5          158.5          30.355941      25.755368      30.579384      34.733071      56.894391    
      1140   56.856254      158.5          158.5          158.5          30.342919      25.735469      30.587945      34.705344      56.856254    
      1160   56.778237      158.5          158.5          158.5          30.16272       25.554466      30.338194      34.595499      56.778237    
      1180   56.709967      158.5          158.5          158.5          30.2389        25.67005       30.401429      34.645221      56.709967    
      1200   56.633733      158.5          158.5          158.5          30.343112      25.769272      30.561603      34.698463      56.633733    
      1220   56.598947      158.5          158.5          158.5          30.280945      25.740045      30.422743      34.680048      56.598947    
      1240   56.549189      158.5          158.5          158.5          30.292796      25.728017      30.446793      34.70358       56.549189    
      1251   56.521492      158.5          158.5          158.5          30.321489      25.706998      30.539303      34.718166      56.521492    
Loop time of 0.103878 on 1 procs for 1251 steps with 100 atoms

89.1% CPU use with 1 MPI tasks x no OpenMP threads

Minimization stats:
  Stopping criterion = linesearch alpha is zero
  Energy initial, next-to-last, final = 
      247.852601995098   56.5214920692036   56.5214920692036
  Force two-norm initial, final = 562.81733 1.8801879
  Force max component initial, final = 118.9464 0.69070942
  Final line search alpha, max atom move = 2.1163255e-09 1.461766e-09
  Iterations, force evaluations = 1251 2549

MPI task timing breakdown:
Section |  min time  |  avg time  |  max time  |%varavg| %total
---------------------------------------------------------------
Pair    | 0.044937   | 0.044937   | 0.044937   |   0.0 | 43.26
Bond    | 0.043346   | 0.043346   | 0.043346   |   0.0 | 41.73
Neigh   | 0.0049609  | 0.0049609  | 0.0049609  |   0.0 |  4.78
Comm    | 0.00051565 | 0.00051565 | 0.00051565 |   0.0 |  0.50
Output  | 0.0039848  | 0.0039848  | 0.0039848  |   0.0 |  3.84
Modify  | 0          | 0          | 0          |   0.0 |  0.00
Other   |            | 0.006133   |            |       |  5.90

Nlocal:            100 ave         100 max         100 min
Histogram: 1 0 0 0 0 0 0 0 0 0
Nghost:              0 ave           0 max           0 min
Histogram: 1 0 0 0 0 0 0 0 0 0
Neighs:            599 ave         599 max         599 min
Histogram: 1 0 0 0 0 0 0 0 0 0
FullNghs:            0 ave           0 max           0 min
Histogram: 1 0 0 0 0 0 0 0 0 0

Total # of neighbors = 599
Ave neighs/atom = 5.99
Ave special neighs/atom = 5.88
Neighbor list builds = 67
Dangerous builds = 0

run 1000000
Generated 0 of 3 mixed pair_coeff terms from geometric mixing rule
Per MPI rank memory allocation (min/avg/max) = 9.279 | 9.279 | 9.279 Mbytes
   Step         PotEng           Lx             Ly             Lz           Press           Pxx            Pyy            Pzz          c_eatoms   
      1251   56.521492      158.5          158.5          158.5          30.321489      25.706998      30.539303      34.718166      56.521492    
      1260   1181.3333      158.5          158.5          158.5         -7.468158      -4.1228187     -14.02865      -4.2530057      1181.3333    
      1280   810.34126      158.5          158.5          158.5          0.67289628    -4.3012237      3.1120936      3.207819       810.34126    
      1300   793.95528      158.5          158.5          158.5         -21.279113     -21.686991     -22.802005     -19.348342      793.95528    
      1320   698.36669      158.5          158.5          158.5         -1.2629331      1.0003445     -2.4236232     -2.3655205      698.36669    
      1340   636.45181      158.5          158.5          158.5          0.22748646     2.8070342     -4.2408322      2.1162574      636.45181    
      1360   491.49303      158.5          158.5          158.5         -3.3891662      0.52695288    -4.2822267     -6.4122249      491.49303    
      1380   441.11122      158.5          158.5          158.5          8.7990409      13.30732       7.3016267      5.7881758      441.11122    
      1400   374.71087      158.5          158.5          158.5          4.7581929      9.3658981     -1.2218502      6.1305309      374.71087    
      1420   351.52666      158.5          158.5          158.5         -1.4683353     -0.16765445     2.10222       -6.3395713      351.52666    
      1440   287.75812      158.5          158.5          158.5          3.2101662      6.0615874      5.5969037     -2.0279926      287.75812    
      1460   285.02675      158.5          158.5          158.5         -3.5341416     -4.3488892     -6.5274598      0.27392435     285.02675    
      1480   242.37024      158.5          158.5          158.5          0.36995768    -0.25707365     3.8826864     -2.5157397      242.37024    
      1500   238.54105      158.5          158.5          158.5          6.1450958      9.0345001      7.1457476      2.2550396      238.54105    
      1520   211.34729      158.5          158.5          158.5          3.2363756      4.0978478      1.7066188      3.9046603      211.34729    
      1540   191.1046       158.5          158.5          158.5          5.6160908      2.1578568      8.3897773      6.3006383      191.1046     
      1560   197.97911      158.5          158.5          158.5          3.7567084      3.5112778      3.7865707      3.9722766      197.97911    
      1580   175.32098      158.5          158.5          158.5         -0.53360421     1.1005841     -2.0839357     -0.61746107     175.32098    
      1600   162.69736      158.5          158.5          158.5          0.37212317    -2.5339476      3.6074427      0.04287449     162.69736    
      1620   165.28411      158.5          158.5          158.5         -0.66063481    -3.4239774      0.41773292     1.02434        165.28411    
      1640   157.55584      158.5          158.5          158.5         -0.62275788    -0.66116001    -4.156454       2.9493403      157.55584    
      1660   148.91991      158.5          158.5          158.5         -1.0697326     -0.25103133    -1.777258      -1.1809084      148.91991    
      1680   150.0566       158.5          158.5          158.5          0.32052345    -0.29891766     1.8325692     -0.57208121     150.0566     
      1700   143.6599       158.5          158.5          158.5         -1.557377      -5.6459568     -1.4563925      2.4302182      143.6599     
      1720   136.00173      158.5          158.5          158.5         -1.2352574     -1.7981214     -3.2464541      1.3388034      136.00173    
      1740   146.29401      158.5          158.5          158.5          2.5980079      5.2258733      0.94476293     1.6233874      146.29401    
      1760   132.34358      158.5          158.5          158.5         -0.91539934    -0.61719643    -1.2313018     -0.89769975     132.34358    
      1780   140.04145      158.5          158.5          158.5         -0.056324179   -3.3797958      0.40863795     2.8021853      140.04145    
      1800   134.61358      158.5          158.5          158.5          0.62277699    -0.36459313     1.0987432      1.1341809      134.61358    
      1820   148.33455      158.5          158.5          158.5         -3.2445182      0.21376228    -3.0754905     -6.8718263      148.33455    
      1840   140.66981      158.5          158.5          158.5         -0.74203419     0.10333438    -0.99241048    -1.3370265      140.66981    
      1860   141.3128       158.5          158.5          158.5         -1.5200941     -4.9060997     -1.1331338      1.4789514      141.3128     
      1880   142.88791      158.5          158.5          158.5          0.52881287     1.3799073      2.5616334     -2.355102       142.88791    
      1900   152.42908      158.5          158.5          158.5          1.1931214      6.0739087      1.1812965     -3.6758408      152.42908    
      1920   149.10334      158.5          158.5          158.5          0.73434465     2.5981927     -1.6811253      1.2859665      149.10334    
      1940   158.81809      158.5          158.5          158.5          1.6913022      1.1479076      2.2017152      1.724284       158.81809    
      1960   155.10763      158.5          158.5          158.5         -2.8364077     -2.8699813      0.70860463    -6.3478466      155.10763    
      1980   162.69231      158.5          158.5          158.5         -1.1635525      4.2196367     -4.5623175     -3.1479767      162.69231    
      2000   163.21977      158.5          158.5          158.5         -4.1235844      0.32031224    -7.6775903     -5.0134751      163.21977    
      2020   166.86674      158.5          158.5          158.5         -4.4537138     -5.5162534     -0.92867601    -6.9162119      166.86674    
      2040   169.22754      158.5          158.5          158.5          2.6486032      1.8666429      3.8795786      2.199588       169.22754    
      2060   173.72209      158.5          158.5          158.5          0.55558483     3.5912481     -1.7228646     -0.20162909     173.72209    
      2080   170.62474      158.5          158.5          158.5          5.1788285      5.9068505      4.8509762      4.7786589      170.62474    
      2100   179.91239      158.5          158.5          158.5          4.5278289      1.3929457      5.502092       6.6884489      179.91239    
      2120   168.8213       158.5          158.5          158.5          1.264261      -1.3139743      3.1526505      1.9541068      168.8213     
      2140   180.83068      158.5          158.5          158.5          3.3627929      4.0212979      2.8690733      3.1980074      180.83068    
      2160   168.97676      158.5          158.5          158.5         -2.5329009     -3.0714351     -2.1118757     -2.415392       168.97676    
      2180   163.58783      158.5          158.5          158.5          0.34949381    -2.7495659      1.6386251      2.1594223      163.58783    
      2200   162.8661       158.5          158.5          158.5          0.22176403    -4.3422648      1.9071754      3.1003814      162.8661     
      2220   162.09421      158.5          158.5          158.5         -0.3918853      1.4368023     -1.7483192     -0.86413896     162.09421    
      2240   150.96548      158.5          158.5          158.5          4.3031809      9.2834379      0.02733936     3.5987655      150.96548    
      2260   155.53053      158.5          158.5          158.5         -1.8135801     -1.9822807     -2.7612246     -0.69723503     155.53053    
      2280   151.87471      158.5          158.5          158.5         -1.5868832     -3.2053457     -0.043380569   -1.5119232      151.87471    
      2300   155.76723      158.5          158.5          158.5          2.395421       2.5572507      2.1127739      2.5162384      155.76723    
      2320   149.44297      158.5          158.5          158.5         -3.7205468     -2.3167439     -4.3363171     -4.5085795      149.44297    
      2340   135.25497      158.5          158.5          158.5          0.64921568     1.6525166      2.2570038     -1.9618734      135.25497    
      2360   151.00524      158.5          158.5          158.5          2.1981867      2.2070983      4.0561429      0.33131894     151.00524    
      2380   152.70484      158.5          158.5          158.5         -4.0773775     -3.0151814     -5.0210331     -4.1959179      152.70484    
      2400   143.61078      158.5          158.5          158.5          1.077312       3.8182204     -1.6395971      1.0533128      143.61078    
      2420   140.84034      158.5          158.5          158.5          0.35605176     1.7101052     -1.1981993      0.55624932     140.84034    
      2440   145.13785      158.5          158.5          158.5         -3.7484219     -4.0552482     -2.8869675     -4.3030499      145.13785    
      2460   146.2423       158.5          158.5          158.5          1.6312196      3.4597487      1.7038729     -0.26996271     146.2423     
      2480   145.56894      158.5          158.5          158.5         -2.5838118     -0.22904148    -5.2351635     -2.2872304      145.56894    
      2500   141.01342      158.5          158.5          158.5         -1.9591261     -1.2082661     -3.2614174     -1.4076948      141.01342    
      2520   146.39489      158.5          158.5          158.5          1.4736346      2.9838604      1.8920032     -0.45495972     146.39489    
      2540   151.01909      158.5          158.5          158.5         -4.9076383     -4.7024831     -4.9200667     -5.1003649      151.01909    
      2560   147.61771      158.5          158.5          158.5          0.34808959    -1.1116413      0.82605297     1.3298571      147.61771    
      2580   151.27894      158.5          158.5          158.5         -0.50980781    -3.0314383     -1.1264737      2.6284886      151.27894    
      2600   154.98121      158.5          158.5          158.5         -4.2957208     -7.7617483     -2.0659696     -3.0594446      154.98121    
      2620   155.68514      158.5          158.5          158.5          3.4417423      0.54064118     7.8673528      1.9172329      155.68514    
      2640   156.94797      158.5          158.5          158.5          1.1112266      0.41622919     0.027071035    2.8903797      156.94797    
      2660   162.94655      158.5          158.5          158.5         -0.78369424    -3.7817755     -1.4226857      2.8533784      162.94655    
      2680   154.63227      158.5          158.5          158.5          4.4180813      1.6562203      7.0731811      4.5248426      154.63227    
      2700   158.9134       158.5          158.5          158.5          1.3165749     -1.1287969      2.6606763      2.4178453      158.9134     
      2720   151.04055      158.5          158.5          158.5         -2.5840314     -6.0212499     -3.4672436      1.7363992      151.04055    
      2740   160.38539      158.5          158.5          158.5          1.2609381      1.0064216      1.6695056      1.1068871      160.38539    
      2760   150.24444      158.5          158.5          158.5          1.6172446      1.0086699      2.291443       1.5516208      150.24444    
      2780   154.29975      158.5          158.5          158.5         -2.2218073     -2.8026148     -3.2079756     -0.65483166     154.29975    
      2800   154.80362      158.5          158.5          158.5          2.6553247      3.3365243      1.1664753      3.4629746      154.80362    
      2820   148.51493      158.5          158.5          158.5          0.68099551     0.16281943     0.19602314     1.6841439      148.51493    
      2840   159.41319      158.5          158.5          158.5         -3.6759899     -2.8197646     -3.1245224     -5.0836828      159.41319    
      2860   151.80151      158.5          158.5          158.5          1.0015696      0.30782127     2.9342657     -0.23737812     151.80151    
      2880   150.20751      158.5          158.5          158.5         -2.6818307     -4.6345433     -2.4245248     -0.98642395     150.20751    
      2900   144.38509      158.5          158.5          158.5         -1.3496394      0.47751403    -2.5853057     -1.9411264      144.38509    
      2920   143.93022      158.5          158.5          158.5          1.8565554      4.5878952      4.3377863     -3.3560152      143.93022    
      2940   145.42994      158.5          158.5          158.5         -0.31419491    -1.5869968      2.7159458     -2.0715337      145.42994    
      2960   146.40697      158.5          158.5          158.5          0.84707677    -0.18014863     0.48601447     2.2353645      146.40697    
      2980   140.19523      158.5          158.5          158.5          0.39919305     4.1187656     -0.42470819    -2.4964783      140.19523    
      3000   150.35513      158.5          158.5          158.5          0.51586835     3.9947433      1.0321166     -3.4792549      150.35513    
      3020   143.11446      158.5          158.5          158.5         -1.6762652     -1.9850836     -1.225721      -1.8179911      143.11446    
      3040   144.28934      158.5          158.5          158.5         -1.8112711     -4.5695565     -1.7191856      0.85492891     144.28934    
      3060   143.53672      158.5          158.5          158.5          1.5905517      4.0962113      0.89947958    -0.22403567     143.53672    
      3080   139.88847      158.5          158.5          158.5         -0.72615129     2.4626787      1.9728898     -6.6140223      139.88847    
      3100   139.18242      158.5          158.5          158.5          2.8959595     -0.95735542     3.7606314      5.8846025      139.18242    
      3120   142.19478      158.5          158.5          158.5          2.8009836     -0.73230286     1.2180764      7.9171772      142.19478    
      3140   146.69565      158.5          158.5          158.5          0.16475807     1.268112       0.0077621086  -0.78159987     146.69565    
      3160   150.62411      158.5          158.5          158.5          2.0786186      3.4719576      3.0719791     -0.30808092     150.62411    
      3180   143.59085      158.5          158.5          158.5         -1.2924429     -6.3276702      0.38536521     2.0649764      143.59085    
      3200   156.98591      158.5          158.5          158.5         -0.2504105     -4.5595255     -1.3276573      5.1359513      156.98591    
      3220   149.41507      158.5          158.5          158.5          1.2828021      4.8292339     -1.906498       0.92567045     149.41507    
      3240   155.61492      158.5          158.5          158.5         -1.5906243      0.58971357    -2.6371009     -2.7244856      155.61492    
      3260   153.514        158.5          158.5          158.5          0.65705507    -2.5957336      2.8288582      1.7380406      153.514      
      3280   163.1147       158.5          158.5          158.5         -0.30138887    -0.55410855    -1.3821538      1.0320958      163.1147     
      3300   142.0973       158.5          158.5          158.5         -0.8383151      1.8296461     -3.5776354     -0.76695603     142.0973     
      3320   159.05858      158.5          158.5          158.5         -0.51393638    -0.48462114     1.830482      -2.88767        159.05858    
      3340   152.59825      158.5          158.5          158.5          0.99845626     0.59747209     2.1491809      0.24871576     152.59825    
      3360   151.51625      158.5          158.5          158.5          0.83463823     1.0192892     -2.5216182      4.0062437      151.51625    
      3380   151.77231      158.5          158.5          158.5         -0.070611998    0.3837487      0.77639962    -1.3719843      151.77231    
      3400   164.42851      158.5          158.5          158.5          1.6105814      4.3653262      1.4747829     -1.008365       164.42851    
      3420   157.02541      158.5          158.5          158.5         -0.77184891     1.9506045     -4.6033882      0.33723697     157.02541    
      3440   145.81164      158.5          158.5          158.5         -0.62504191    -0.96286611    -1.0462964      0.13403674     145.81164    
      3460   153.73474      158.5          158.5          158.5          0.50791869     3.0408445     -1.3651239     -0.15196459     153.73474    
      3480   139.89294      158.5          158.5          158.5         -3.3509782      0.83782139    -4.0137746     -6.8769813      139.89294    
      3500   153.19071      158.5          158.5          158.5         -1.3894568     -1.4229981      1.2186089     -3.963981       153.19071    
      3520   144.30954      158.5          158.5          158.5         -0.94141229    -1.1527752     -3.3597518      1.6882901      144.30954    
      3540   152.8228       158.5          158.5          158.5         -1.5154226     -1.735969      -4.8852956      2.0749967      152.8228     
      3560   141.33216      158.5          158.5          158.5          1.0438842      4.0076371      3.2255778     -4.1015624      141.33216    
      3580   142.23388      158.5          158.5          158.5          1.1587106      6.3440717      0.68542388    -3.5533639      142.23388    
      3600   145.28296      158.5          158.5          158.5         -0.44087359    -0.69792427    -3.5107963      2.8860998      145.28296    
      3620   135.67325      158.5          158.5          158.5         -1.9998188     -3.1236092     -3.3630824      0.48723517     135.67325    
      3640   135.60985      158.5          158.5          158.5          1.6186656      2.5633244      2.3366141     -0.043941839    135.60985    
      3660   146.4725       158.5          158.5          158.5         -1.5249343     -1.0851261     -0.12829936    -3.3613776      146.4725     
      3680   139.50558      158.5          158.5          158.5         -0.73421493    -3.3759103     -1.2948907      2.4681562      139.50558    
      3700   138.53138      158.5          158.5          158.5          1.8583667     -1.1896303      1.8498094      4.914921       138.53138    
      3720   137.90714      158.5          158.5          158.5         -2.2205248     -2.0647809      0.040286991   -4.6370804      137.90714    
      3740   149.53894      158.5          158.5          158.5         -0.35175863    -1.8627173      2.3228739     -1.5154324      149.53894    
      3760   135.6695       158.5          158.5          158.5          0.38387863    -1.7188387     -0.62915359     3.4996282      135.6695     
      3780   142.95431      158.5          158.5          158.5         -1.30308       -1.8685272     -1.9415008     -0.099211923    142.95431    
      3800   138.41559      158.5          158.5          158.5          1.047349       3.188276       2.4343004     -2.4805294      138.41559    
      3820   148.25004      158.5          158.5          158.5         -0.31109911     0.1486826      0.69894186    -1.7809218      148.25004    
      3840   144.12473      158.5          158.5          158.5          1.2552741     -0.38810551     1.0915483      3.0623796      144.12473    
      3860   138.81775      158.5          158.5          158.5         -0.07911571     1.1392662     -0.62747242    -0.74914093     138.81775    
      3880   146.53752      158.5          158.5          158.5          1.9311743      3.8989425      2.0769807     -0.18240039     146.53752    
      3900   146.46785      158.5          158.5          158.5          3.0200791      3.1756239      2.9703163      2.9142971      146.46785    
      3920   155.61277      158.5          158.5          158.5         -1.7675732     -1.7888223     -3.0821956     -0.4317016      155.61277    
      3940   151.82468      158.5          158.5          158.5          1.8018873      1.9316835      0.25798065     3.2159977      151.82468    
      3960   149.23701      158.5          158.5          158.5         -0.27650579     1.3633265     -0.75611845    -1.4367254      149.23701    
      3980   146.94998      158.5          158.5          158.5         -2.6458848     -1.4293745     -2.2919631     -4.2163166      146.94998    
      4000   153.43119      158.5          158.5          158.5          2.8333222      2.2368215      3.563752       2.6993932      153.43119    
      4020   147.50175      158.5          158.5          158.5         -2.1120735     -3.1815276     -1.7929094     -1.3617836      147.50175    
      4040   153.0728       158.5          158.5          158.5         -0.26538513    -0.35668888    -0.13248038    -0.30698613     153.0728     
      4060   142.55668      158.5          158.5          158.5          1.814978       3.9873107      1.7062511     -0.24862777     142.55668    
      4080   150.47166      158.5          158.5          158.5         -2.8169369     -1.3091538     -5.2323131     -1.9093439      150.47166    
      4100   153.61759      158.5          158.5          158.5         -0.48668281     1.7574847     -1.8228699     -1.3946632      153.61759    
      4120   145.05219      158.5          158.5          158.5         -0.10888704     3.2140812     -0.16123806    -3.3795042      145.05219    
      4140   145.55442      158.5          158.5          158.5         -1.2787706     -2.3489584     -3.0507831      1.5634295      145.55442    
      4160   152.20433      158.5          158.5          158.5          0.42677864    -1.1513697     -0.93647894     3.3681846      152.20433    
      4180   140.87079      158.5          158.5          158.5         -0.75117865    -2.0499643      1.2095281     -1.4130997      140.87079    
      4200   147.09161      158.5          158.5          158.5         -0.86081787    -2.3373245      0.71362157    -0.95875072     147.09161    
      4220   148.14617      158.5          158.5          158.5         -0.8118482     -0.67391622    -2.1010418      0.33941343     148.14617    
      4240   147.05578      158.5          158.5          158.5         -1.3653616     -1.2326758     -4.1493099      1.2859009      147.05578    
      4260   138.44252      158.5          158.5          158.5          0.063975627   -0.84968406     0.38441345     0.65719749     138.44252    
      4280   143.13546      158.5          158.5          158.5          0.0017784807  -1.1485525     -0.23484352     1.3887315      143.13546    
      4300   149.65073      158.5          158.5          158.5         -0.61657228    -1.1563669     -2.5689271      1.8755772      149.65073    
      4320   141.2744       158.5          158.5          158.5         -0.24533662    -2.5450759     -1.1390564      2.9481225      141.2744     
      4340   144.67997      158.5          158.5          158.5          0.35325997    -0.23373028     0.31022844     0.98328174     144.67997    
      4360   153.86382      158.5          158.5          158.5          1.0596744      1.3854794      3.1314121     -1.3378684      153.86382    
      4380   135.70595      158.5          158.5          158.5          1.9809865      0.4041562      4.1532223      1.3855809      135.70595    
      4400   158.8279       158.5          158.5          158.5          0.55960336     3.2213919     -2.1851777      0.64259592     158.8279     
      4420   147.5216       158.5          158.5          158.5          3.1115137      6.4661939      3.1389851     -0.27063781     147.5216     
      4440   151.0246       158.5          158.5          158.5         -1.3279328     -2.5633781      2.5249368     -3.9453573      151.0246     
      4460   146.88672      158.5          158.5          158.5         -0.79515045    -1.882131       1.4397433     -1.9430636      146.88672    
      4480   153.44523      158.5          158.5          158.5          2.7331405      6.4203555      0.89285375     0.8862122      153.44523    
      4500   151.65361      158.5          158.5          158.5         -1.7884646     -0.51193914    -0.91194107    -3.9415135      151.65361    
      4520   151.21597      158.5          158.5          158.5          2.3843843      2.4497743      3.8507075      0.8526712      151.21597    
      4540   152.70625      158.5          158.5          158.5          2.6516045      2.7163553      3.3691765      1.8692818      152.70625    
      4560   146.76335      158.5          158.5          158.5         -4.8028423     -3.7842717     -4.8617681     -5.7624871      146.76335    
      4580   142.67468      158.5          158.5          158.5          0.29500675    -0.92624478     0.30185689     1.5094082      142.67468    
      4600   157.21834      158.5          158.5          158.5         -3.6573696     -8.7771635     -0.36280461    -1.8321407      157.21834    
      4620   151.34288      158.5          158.5          158.5         -4.338327      -3.8266651     -2.3104226     -6.8778932      151.34288    
      4640   145.67621      158.5          158.5          158.5          1.3641071      3.8519719     -1.1356665      1.3760159      145.67621    
      4660   150.45857      158.5          158.5          158.5         -2.9189219     -5.5794896     -3.5238014      0.34652539     150.45857    
      4680   151.28272      158.5          158.5          158.5         -2.3316217     -3.0187292     -2.3607325     -1.6154035      151.28272    
      4700   148.5977       158.5          158.5          158.5          0.48705418    -0.059140878    0.70224166     0.81806175     148.5977     
      4720   149.00039      158.5          158.5          158.5         -1.4005189     -3.3081743     -2.6872659      1.7938835      149.00039    
      4740   140.19287      158.5          158.5          158.5          2.1774301      3.3070514      0.43353609     2.7917027      140.19287    
      4760   143.70158      158.5          158.5          158.5          2.8074949      3.9817584      1.6692663      2.7714601      143.70158    
      4780   142.36627      158.5          158.5          158.5         -0.045580622   -0.32430849    -1.527258       1.7148246      142.36627    
      4800   146.21027      158.5          158.5          158.5          2.0812456      2.6369739     -1.4505785      5.0573415      146.21027    
      4820   149.75029      158.5          158.5          158.5          2.7033736      4.6067781     -2.3220448      5.8253874      149.75029    
      4840   155.00771      158.5          158.5          158.5          0.084211238    1.5934306     -0.58939215    -0.75140474     155.00771    
      4860   140.96205      158.5          158.5          158.5          3.8473836      4.9014608      4.7659461      1.874744       140.96205    
      4880   152.21921      158.5          158.5          158.5          3.2096804      5.7397731      1.0919763      2.7972917      152.21921    
      4900   144.35956      158.5          158.5          158.5          1.1196593      0.2021483      1.0207433      2.1360863      144.35956    
      4920   149.24731      158.5          158.5          158.5          4.0209503      0.51065748     7.442086       4.1101075      149.24731    
      4940   141.17009      158.5          158.5          158.5          1.6006464      1.8841077      3.9406693     -1.0228378      141.17009    
      4960   154.51997      158.5          158.5          158.5         -0.56075355    -1.1093825     -0.50810512    -0.064773011    154.51997    
      4980   144.07924      158.5          158.5          158.5          2.5865263      2.127888       3.0746399      2.5570509      144.07924    
      5000   149.6503       158.5          158.5          158.5         -1.7518497     -0.94819003     0.49751201    -4.8048709      149.6503     
      5020   149.79281      158.5          158.5          158.5         -3.3039282     -4.567584      -1.883385      -3.4608156      149.79281    
      5040   166.09116      158.5          158.5          158.5          0.66543561     1.6006416      0.2650658      0.13059938     166.09116    
      5060   145.43624      158.5          158.5          158.5          0.041327255   -0.3606219      1.399562      -0.91495836     145.43624    
      5080   152.82531      158.5          158.5          158.5          0.18241781    -1.9811286      4.0827582     -1.5543761      152.82531    
      5100   147.97938      158.5          158.5          158.5          1.8533039      3.3839352      3.3986753     -1.2226989      147.97938    
      5120   148.60768      158.5          158.5          158.5         -1.8299666     -0.93221798    -1.8584674     -2.6992143      148.60768    
      5140   145.15946      158.5          158.5          158.5         -1.9533309     -2.3685515     -1.8894491     -1.6019921      145.15946    
      5160   161.57553      158.5          158.5          158.5         -3.6092641     -4.7531235     -2.5625959     -3.5120729      161.57553    
      5180   144.69903      158.5          158.5          158.5         -2.5028481     -2.2766935     -0.49092138    -4.7409295      144.69903    
      5200   145.91945      158.5          158.5          158.5          1.1745052      2.0842452      3.2036158     -1.7643455      145.91945    
      5220   146.05342      158.5          158.5          158.5         -2.7881694     -3.6957475     -4.0745906     -0.59417015     146.05342    
      5240   153.37753      158.5          158.5          158.5         -0.62031504    -0.73363472    -5.4531131      4.3258027      153.37753    
      5260   150.099        158.5          158.5          158.5          0.36799383     2.5921408     -0.50731818    -0.98084111     150.099      
      5280   150.93774      158.5          158.5          158.5         -1.1192648      0.41900702     0.21028166    -3.9870832      150.93774    
      5300   149.39519      158.5          158.5          158.5          4.7589172      5.8384222      0.13052423     8.3078053      149.39519    
      5320   143.80978      158.5          158.5          158.5          1.0628368      1.4317072     -0.59221117     2.3490144      143.80978    
      5340   144.47026      158.5          158.5          158.5          0.21217482     0.11552052     3.8984514     -3.3774475      144.47026    
      5360   152.1141       158.5          158.5          158.5          2.7133878      2.4932735      1.0581795      4.5887102      152.1141     
      5380   139.54232      158.5          158.5          158.5         -1.9095495     -5.0550736     -3.9944893      3.3209143      139.54232    
      5400   152.80598      158.5          158.5          158.5          0.57607343    -3.0259307      3.3589044      1.3952466      152.80598    
      5420   139.66998      158.5          158.5          158.5          0.43045769     3.158801       0.056719487   -1.9241474      139.66998    
      5440   149.33804      158.5          158.5          158.5         -0.068820619    2.2705284      0.022423382   -2.4994136      149.33804    
      5460   155.79073      158.5          158.5          158.5          0.3273212     -2.9898931      1.7675066      2.2043501      155.79073    
      5480   153.62884      158.5          158.5          158.5         -0.52727828    -0.15584727    -0.23757557    -1.188412       153.62884    
      5500   145.47563      158.5          158.5          158.5          2.1215339      5.5248947      1.4848857     -0.64517866     145.47563    
      5520   152.56268      158.5          158.5          158.5          1.0854932      1.0844521      1.7340744      0.4379531      152.56268    
      5540   148.354        158.5          158.5          158.5          1.9619589     -1.3353023      2.9370528      4.2841263      148.354      
      5560   146.81546      158.5          158.5          158.5          2.5964075      4.5341565      2.2109807      1.0440852      146.81546    
      5580   160.95357      158.5          158.5          158.5         -0.084038081    4.7040792     -0.81164465    -4.1445488      160.95357    
      5600   149.75636      158.5          158.5          158.5          2.9446227      5.100219       1.9411074      1.7925416      149.75636    
      5620   157.35422      158.5          158.5          158.5          0.40040483    -0.84950726    -0.37196866     2.4226904      157.35422    
      5640   155.05269      158.5          158.5          158.5         -0.4314892      0.1540584     -0.13298506    -1.3155409      155.05269    
      5660   154.0003       158.5          158.5          158.5          0.010322461    6.0598097     -3.4569391     -2.5719032      154.0003     
      5680   149.17566      158.5          158.5          158.5         -3.4209888     -5.323403      -1.9975822     -2.9419813      149.17566    
      5700   159.61001      158.5          158.5          158.5         -2.4838618     -7.9396114      1.367165      -0.87913916     159.61001    
      5720   149.24599      158.5          158.5          158.5         -3.1535925     -0.41849881    -5.3194689     -3.7228098      149.24599    
      5740   153.22497      158.5          158.5          158.5         -2.516171      -2.2210078     -2.6085547     -2.7189505      153.22497    
      5760   140.40791      158.5          158.5          158.5         -0.58945637    -2.9423053      0.78247962     0.39145653     140.40791    
      5780   159.55724      158.5          158.5          158.5         -3.2803719     -5.0261753     -3.1167078     -1.6982326      159.55724    
      5800   144.50297      158.5          158.5          158.5         -1.0562873     -3.8946561      0.20864294     0.51715121     144.50297    
      5820   142.73951      158.5          158.5          158.5          2.1417639      3.7645922      1.3117894      1.3489102      142.73951    
      5840   136.89569      158.5          158.5          158.5         -0.1219442      0.99412765    -2.6702359      1.3102757      136.89569    
      5860   151.43345      158.5          158.5          158.5          0.73820777    -3.4220976      4.6849963      0.95172463     151.43345    
      5880   133.16877      158.5          158.5          158.5          2.7719848      1.055271       6.299647       0.96103654     133.16877    
      5900   152.48257      158.5          158.5          158.5          0.23467481     2.2238347     -3.202445       1.6826347      152.48257    
      5920   137.71096      158.5          158.5          158.5         -0.15405601    -1.1555102      0.38851771     0.30482444     137.71096    
      5940   147.42897      158.5          158.5          158.5          1.0178821     -1.7891222      4.5799958      0.26277264     147.42897    
      5960   135.74968      158.5          158.5          158.5         -0.80711299    -1.0729175     -1.4637214      0.11529991     135.74968    
      5980   141.47786      158.5          158.5          158.5          1.8128543      1.0375237      2.2381927      2.1628466      141.47786    
      6000   140.44495      158.5          158.5          158.5          1.3069976     -0.53390338     2.7522949      1.7026012      140.44495    
      6020   143.02829      158.5          158.5          158.5         -3.1834174     -4.8952613     -0.46826647    -4.1867245      143.02829    
      6040   136.87186      158.5          158.5          158.5          1.1199451     -0.84958149     4.0032245      0.20619244     136.87186    
      6060   140.06589      158.5          158.5          158.5         -0.50122823     2.2087704     -4.2328126      0.52035751     140.06589    
      6080   141.07807      158.5          158.5          158.5         -1.8881255     -1.8949133     -2.2011156     -1.5683478      141.07807    
      6100   135.44204      158.5          158.5          158.5         -0.15978556    -3.1825626      2.8704933     -0.16728742     135.44204    
      6120   143.06803      158.5          158.5          158.5          0.48114534     1.9074521      0.39882935    -0.86284541     143.06803    
      6140   135.21726      158.5          158.5          158.5          0.58513288     1.2342739      0.84574776    -0.32462304     135.21726    
      6160   149.22079      158.5          158.5          158.5         -1.5549585     -3.4628726     -2.0866821      0.88467912     149.22079    
      6180   138.20145      158.5          158.5          158.5          1.22266       -0.79359309     2.8517272      1.609846       138.20145    
      6200   146.55516      158.5          158.5          158.5          0.62695007     0.3867235      3.0071909     -1.5130642      146.55516    
      6220   144.92819      158.5          158.5          158.5         -2.4595282      2.0182395     -5.8185978     -3.5782263      144.92819    
      6240   150.30068      158.5          158.5          158.5          0.67151209     1.1924668     -2.6721373      3.4942068      150.30068    
      6260   154.5254       158.5          158.5          158.5         -0.88739569    -3.5091891     -0.66451787     1.5115198      154.5254     
      6280   153.29858      158.5          158.5          158.5         -0.61185438     2.5582658      0.48620768    -4.8800366      153.29858    
      6300   142.70323      158.5          158.5          158.5          1.5704071      4.0018031      1.9415488     -1.2321306      142.70323    
      6320   146.52832      158.5          158.5          158.5         -1.6694032     -6.5110993      0.18194748     1.3209423      146.52832    
      6340   149.75965      158.5          158.5          158.5          0.84736076     0.75476296    -0.054167422    1.8414868      149.75965    
      6360   140.95425      158.5          158.5          158.5          1.7883126      4.8468194      1.1896881     -0.67156979     140.95425    
      6380   145.24756      158.5          158.5          158.5         -0.29792842     1.7255178     -0.42338017    -2.1959229      145.24756    
      6400   136.47623      158.5          158.5          158.5          1.4714772      3.0620529     -1.2541346      2.6065134      136.47623    
      6420   150.47592      158.5          158.5          158.5          0.66238219     1.755555      -1.571242       1.8028336      150.47592    
      6440   144.11702      158.5          158.5          158.5         -1.6545282      0.54692321    -4.0600867     -1.450421       144.11702    
      6460   152.30066      158.5          158.5          158.5          0.098859218   -2.2004401      0.67221346     1.8248043      152.30066    
      6480   142.58082      158.5          158.5          158.5         -0.79117723    -3.6549259      0.43571667     0.8456775      142.58082    
      6500   136.90422      158.5          158.5          158.5         -1.0586858      1.3355779     -2.9289528     -1.5826824      136.90422    
      6520   143.21107      158.5          158.5          158.5          2.9598052      4.8725196      2.6438829      1.363013       143.21107    
      6540   151.72953      158.5          158.5          158.5         -0.63548751    -0.71839441     1.5791399     -2.767208       151.72953    
      6560   139.11591      158.5          158.5          158.5         -0.41885764     0.10857257    -0.078517403   -1.2866281      139.11591    
      6580   139.22681      158.5          158.5          158.5          2.4291627      1.9315775      2.1304957      3.2254149      139.22681    
      6600   148.24712      158.5          158.5          158.5         -2.3690371     -4.2850066     -0.012941655   -2.8091631      148.24712    
      6620   136.49122      158.5          158.5          158.5         -0.089239878   -0.66904374     0.404789      -0.0034648901   136.49122    
      6640   142.01864      158.5          158.5          158.5         -0.45963085    -2.5491386     -1.7209439      2.8911899      142.01864    
      6660   141.86106      158.5          158.5          158.5         -1.612932      -3.1891525     -0.62278381    -1.0268596      141.86106    
      6680   142.26982      158.5          158.5          158.5          0.35577284     0.28892339     1.7952369     -1.0168417      142.26982    
      6700   143.89468      158.5          158.5          158.5         -2.0487877     -4.5395036     -1.4773568     -0.12950261     143.89468    
      6720   143.57735      158.5          158.5          158.5         -0.28021606    -2.173951      -0.23242422     1.565727       143.57735    
      6740   142.04544      158.5          158.5          158.5         -1.711269      -0.61566247    -0.10291218    -4.4152324      142.04544    
      6760   151.03972      158.5          158.5          158.5         -0.23309249    -1.4882876      2.0307773     -1.2417672      151.03972    
      6780   144.14429      158.5          158.5          158.5          0.95551045     0.1210939      0.53166436     2.2137731      144.14429    
      6800   140.02064      158.5          158.5          158.5         -2.656358      -1.7412366     -4.742159      -1.4856784      140.02064    
      6820   140.14903      158.5          158.5          158.5          2.7708052      2.3273302      2.517481       3.4676045      140.14903    
      6840   148.04341      158.5          158.5          158.5          0.65845658     0.43532688     2.2056545     -0.66561168     148.04341    
      6860   149.09387      158.5          158.5          158.5         -3.098919      -3.752512      -2.6733401     -2.870905       149.09387    
      6880   144.74894      158.5          158.5          158.5          3.5872288      1.6473855      3.5926071      5.5216938      144.74894    
      6900   152.34928      158.5          158.5          158.5         -0.014999626    1.6486962     -0.44295441    -1.2507406      152.34928    
      6920   150.08966      158.5          158.5          158.5          0.14681074     2.0404659     -0.76960001    -0.8304337      150.08966    
      6940   150.13387      158.5          158.5          158.5          6.3265503      9.8846979      5.5757667      3.5191864      150.13387    
      6960   154.23045      158.5          158.5          158.5         -0.66060766     5.2956815     -4.3161093     -2.9613952      154.23045    
      6980   140.17332      158.5          158.5          158.5          2.422708       2.4881118      1.6936548      3.0863573      140.17332    
      7000   138.38931      158.5          158.5          158.5          4.5925377      3.510096       5.2675232      4.9999939      138.38931    
      7020   154.39816      158.5          158.5          158.5         -3.1547533     -2.83015       -3.5077715     -3.1263382      154.39816    
      7040   142.44415      158.5          158.5          158.5          2.2656167      0.77073883     2.9466364      3.0794748      142.44415    
      7060   141.93998      158.5          158.5          158.5         -0.28650429    -0.49210816    -1.4423432      1.0749385      141.93998    
      7080   140.66279      158.5          158.5          158.5         -4.9609593     -2.7367437     -7.6178782     -4.528256       140.66279    
      7100   144.50771      158.5          158.5          158.5          1.6076944      3.1409336      1.1787607      0.50338885     144.50771    
      7120   139.57917      158.5          158.5          158.5         -3.8511507     -3.4463014     -5.0222167     -3.0849341      139.57917    
      7140   148.794        158.5          158.5          158.5         -3.0577485     -2.7374988     -5.8732491     -0.56249762     148.794      
      7160   141.14401      158.5          158.5          158.5          2.8381987      3.2365533      1.6183462      3.6596966      141.14401    
      7180   142.33839      158.5          158.5          158.5         -2.3711567     -1.1938054     -2.8458034     -3.0738614      142.33839    
      7200   143.41626      158.5          158.5          158.5          0.92321988    -1.4240938      2.444569       1.7491844      143.41626    
      7220   152.01179      158.5          158.5          158.5          1.9809942      1.0654991      2.8044873      2.0729962      152.01179    
      7240   136.74493      158.5          158.5          158.5         -2.4193941     -0.83737372    -2.5452027     -3.875606       136.74493    
      7260   140.53407      158.5          158.5          158.5          0.31289611     1.1566287      0.60010073    -0.81804109     140.53407    
      7280   143.54318      158.5          158.5          158.5          0.75903502    -0.23037477     0.088916278    2.4185635      143.54318    
      7300   143.101        158.5          158.5          158.5         -2.132277      -3.9149536     -1.7635104     -0.71836696     143.101      
      7320   139.1018       158.5          158.5          158.5          0.14506779     1.9537468     -0.63288885    -0.88565455     139.1018     
      7340   142.10662      158.5          158.5          158.5          1.093844       2.3087106     -2.3851241      3.3579455      142.10662    
      7360   145.0661       158.5          158.5          158.5         -1.8761659     -3.457245      -2.0409652     -0.13028766     145.0661     
      7380   145.34316      158.5          158.5          158.5          0.868905      -1.8498763      2.7604903      1.696101       145.34316    
      7400   141.45737      158.5          158.5          158.5          2.7256494      3.5211563      1.6005094      3.0552823      141.45737    
      7420   147.13138      158.5          158.5          158.5          0.21460331     2.2384387     -0.60614902    -0.98847972     147.13138    
      7440   148.94866      158.5          158.5          158.5          0.88957796    -1.5259511      5.1765074     -0.98182243     148.94866    
      7460   145.96849      158.5          158.5          158.5          1.0199089     -2.0784011      3.047248       2.0908797      145.96849    
      7480   149.08657      158.5          158.5          158.5         -1.804908      -1.2032601     -3.5849184     -0.62654557     149.08657    
      7500   156.13753      158.5          158.5          158.5         -3.1383762     -2.4694952     -1.3538734     -5.59176        156.13753    
      7520   142.64528      158.5          158.5          158.5          1.4326164      1.5881302      1.236809       1.4729102      142.64528    
      7540   145.32519      158.5          158.5          158.5          0.10209012    -0.96855072    -0.63522952     1.9100506      145.32519    
      7560   145.83888      158.5          158.5          158.5         -2.6993393     -3.2104963     -1.3556995     -3.5318222      145.83888    
      7580   156.63103      158.5          158.5          158.5          1.603666       2.8976955      1.9545202     -0.041217833    156.63103    
      7600   152.73726      158.5          158.5          158.5         -0.62620762    -3.7418472      0.25454286     1.6086815      152.73726    
      7620   145.74725      158.5          158.5          158.5         -0.83894229    -3.6062586      0.34069286     0.74873888     145.74725    
      7640   144.8789       158.5          158.5          158.5          2.0867109      5.1463271      0.99343181     0.12037378     144.8789     
      7660   149.05459      158.5          158.5          158.5         -1.215597       2.2931931     -1.0183006     -4.9216836      149.05459    
      7680   145.10334      158.5          158.5          158.5          0.79141177    -0.42666764     0.85479593     1.946107       145.10334    
      7700   145.43593      158.5          158.5          158.5         -1.326368      -3.8901148     -0.5899804      0.50099116     145.43593    
      7720   145.97976      158.5          158.5          158.5         -1.9258048     -3.3313016     -1.4986205     -0.94749237     145.97976    
      7740   140.55529      158.5          158.5          158.5          1.1772852      1.8695606      0.53348657     1.1288084      140.55529    
      7760   152.08447      158.5          158.5          158.5         -1.5990441     -1.7641962     -0.35102065    -2.6819154      152.08447    
      7780   142.49088      158.5          158.5          158.5          1.5991768     -0.70850263     2.0118431      3.4941899      142.49088    
      7800   142.54529      158.5          158.5          158.5          0.0032697055  -0.36967955    -1.7134295      2.0929182      142.54529    
      7820   149.21014      158.5          158.5          158.5         -0.0056103873   1.9249654     -1.3255326     -0.61626398     149.21014    
      7840   141.94949      158.5          158.5          158.5          1.2655908      2.3778175      0.044811715    1.3741431      141.94949    
      7860   146.37996      158.5          158.5          158.5         -0.75546444     1.0376243     -2.2172098     -1.0868077      146.37996    
      7880   148.32338      158.5          158.5          158.5         -0.075090479    0.47280482     1.665871      -2.3639472      148.32338    
      7900   142.37492      158.5          158.5          158.5         -0.62147855    -2.5669946      1.2187071     -0.51614819     142.37492    
      7920   136.82151      158.5          158.5          158.5         -0.88926411    -2.0032674     -2.6571071      1.9925822      136.82151    
      7940   142.43401      158.5          158.5          158.5         -0.57062658    -0.57735151    -1.0127101     -0.1218181      142.43401    
      7960   143.43944      158.5          158.5          158.5         -1.0382025     -1.3960079     -0.69711699    -1.0214827      143.43944    
      7980   145.86745      158.5          158.5          158.5          2.4175161      4.1029384      0.55832576     2.5912842      145.86745    
      8000   143.86175      158.5          158.5          158.5          1.0407393      0.67051002     1.3769666      1.0747414      143.86175    
      8020   145.78619      158.5          158.5          158.5          0.69606522    -1.3157296      0.37321446     3.0307108      145.78619    
      8040   146.51302      158.5          158.5          158.5          2.9816785      4.3320547      3.0332207      1.57976        146.51302    
      8060   146.82332      158.5          158.5          158.5          0.54840678     1.3554638      2.5385635     -2.2488069      146.82332    
      8080   138.8289       158.5          158.5          158.5          0.48364155     0.28344722     1.3070719     -0.13959452     138.8289     
      8100   138.8481       158.5          158.5          158.5          0.66242976     2.9701832     -1.3504553      0.36756138     138.8481     
      8120   141.01821      158.5          158.5          158.5         -1.4346151     -2.2393582     -0.55272022    -1.5117669      141.01821    
      8140   153.26081      158.5          158.5          158.5         -2.2269531     -4.0738251      0.83419179    -3.441226       153.26081    
      8160   139.47866      158.5          158.5          158.5         -0.24187266    -2.0758178     -1.9028158      3.2530156      139.47866    
      8180   137.79363      158.5          158.5          158.5         -1.6843312     -3.4078554     -0.97893884    -0.66619927     137.79363    
      8200   144.59837      158.5          158.5          158.5         -0.80210665    -0.92658388     1.3026572     -2.7823933      144.59837    
      8220   142.8946       158.5          158.5          158.5          1.738847       2.2164934      1.6950851      1.3049625      142.8946     
      8240   138.72416      158.5          158.5          158.5         -2.6183891     -0.75677587    -2.1586047     -4.9397868      138.72416    
      8260   140.25122      158.5          158.5          158.5          0.62373439     0.78256095     0.65420322     0.434439       140.25122    
      8280   142.33966      158.5          158.5          158.5          0.20614425    -1.0191728      1.1597529      0.47785265     142.33966    
      8300   136.47951      158.5          158.5          158.5         -1.196068      -2.6631063     -0.15246272    -0.77263485     136.47951    
      8320   138.73587      158.5          158.5          158.5          3.056884       2.1148065      2.7836257      4.27222        138.73587    
      8340   132.76584      158.5          158.5          158.5         -0.26203775     1.3009363     -1.2905608     -0.79648884     132.76584    
      8360   135.62216      158.5          158.5          158.5         -0.064106879    1.1694104     -2.4963877      1.1346567      135.62216    
      8380   130.43824      158.5          158.5          158.5          2.7272771      3.7055995      0.10935439     4.3668774      130.43824    
      8400   142.96071      158.5          158.5          158.5         -1.1724827      0.46959106    -2.1889782     -1.7980609      142.96071    
      8420   135.28451      158.5          158.5          158.5         -0.12374156     1.2877264     -0.16469265    -1.4942585      135.28451    
      8440   144.00807      158.5          158.5          158.5          0.78312904     2.9239109     -0.1277919     -0.44673191     144.00807    
      8460   143.11734      158.5          158.5          158.5         -2.264663      -4.4800532     -0.42847913    -1.8854566      143.11734    
      8480   142.68946      158.5          158.5          158.5         -0.61559344    -2.5064289     -0.7074754      1.367124       142.68946    
      8500   141.91456      158.5          158.5          158.5          0.87544102     3.8191613     -3.5368717      2.3440335      141.91456    
      8520   141.62495      158.5          158.5          158.5         -1.6217757      2.1615087     -3.7965276     -3.2303081      141.62495    
      8540   141.39342      158.5          158.5          158.5          0.7600046      0.82536018    -1.2022435      2.6568971      141.39342    
      8560   138.80406      158.5          158.5          158.5          0.96395783    -0.8068994     -1.2050134      4.9037863      138.80406    
      8580   139.52778      158.5          158.5          158.5         -3.9458325     -4.5040802     -1.6977078     -5.6357095      139.52778    
      8600   144.77964      158.5          158.5          158.5          1.3945464      0.0030090414   0.11407241     4.0665579      144.77964    
      8620   144.64428      158.5          158.5          158.5         -0.94494663    -3.2763597     -2.5339948      2.9755146      144.64428    
      8640   154.86803      158.5          158.5          158.5         -2.5906498     -1.2974499     -1.1994593     -5.2750403      154.86803    
      8660   129.87665      158.5          158.5          158.5          4.948622       5.5220238      3.00566        6.3181822      129.87665    
      8680   148.65991      158.5          158.5          158.5         -1.043177      -0.9666121     -2.6550448      0.492126       148.65991    
      8700   145.08856      158.5          158.5          158.5          0.76668353     3.4605797     -1.2704331      0.10990402     145.08856    
      8720   151.1366       158.5          158.5          158.5          2.7361993      2.4770396      0.56542534     5.1661329      151.1366     
      8740   138.22918      158.5          158.5          158.5         -2.8462578     -5.8651972     -0.62486129    -2.0487149      138.22918    
      8760   146.02819      158.5          158.5          158.5          2.3814195      2.8447255      1.2501556      3.0493772      146.02819    
      8780   143.62935      158.5          158.5          158.5         -0.65441469     0.044257251   -0.92937348    -1.0781278      143.62935    
      8800   147.67697      158.5          158.5          158.5         -2.2809078     -2.9515233      2.4685308     -6.3597308      147.67697    
      8820   147.52075      158.5          158.5          158.5          0.81868732     3.5817678      0.28328112    -1.4089869      147.52075    
      8840   140.42966      158.5          158.5          158.5         -0.66182002     2.0202045     -1.192027      -2.8136376      140.42966    
      8860   140.05886      158.5          158.5          158.5          0.10705789    -0.79936599     3.6282624     -2.5077228      140.05886    
      8880   144.7382       158.5          158.5          158.5          0.19989539     0.91960822     1.3212495     -1.6411715      144.7382     
      8900   146.56493      158.5          158.5          158.5          0.93234811     0.56957381     1.4109763      0.81649416     146.56493    
      8920   147.68147      158.5          158.5          158.5          0.36709611     0.71799158    -0.95772671     1.3410234      147.68147    
      8940   140.72963      158.5          158.5          158.5          0.69493139     1.3027736     -2.4563141      3.2383346      140.72963    
      8960   137.12204      158.5          158.5          158.5          0.45493129     0.026949258    3.5609238     -2.2230792      137.12204    
      8980   141.30913      158.5          158.5          158.5         -1.0962368     -1.2412927      1.3127234     -3.360141       141.30913    
      9000   143.3427       158.5          158.5          158.5          5.1889708      6.8787354      0.57571465     8.1124624      143.3427     
      9020   142.48976      158.5          158.5          158.5          1.5102091      1.1184372      2.5962184      0.81597164     142.48976    
      9040   140.1121       158.5          158.5          158.5         -1.3502041     -2.2611194      0.83164583    -2.6211387      140.1121     
      9060   134.18942      158.5          158.5          158.5          4.4330646      4.0790132      4.4333385      4.786842       134.18942    
      9080   146.63002      158.5          158.5          158.5         -2.4065609     -7.3069881      0.36187892    -0.27457335     146.63002    
      9100   139.64101      158.5          158.5          158.5         -0.99775715    -1.9384545     -1.6221666      0.56734962     139.64101    
      9120   140.95123      158.5          158.5          158.5          1.2615573      3.668985      -0.19976109     0.31544795     140.95123    
      9140   145.75916      158.5          158.5          158.5         -4.253476      -8.942462      -1.1770765     -2.6408894      145.75916    
      9160   136.59199      158.5          158.5          158.5          0.5584039     -0.77159339    -0.38436674     2.8311719      136.59199    
      9180   149.81311      158.5          158.5          158.5         -0.56688616     1.8987127     -3.4281538     -0.17121741     149.81311    
      9200   153.1914       158.5          158.5          158.5         -3.7400064     -4.6363914     -4.2517533     -2.3318746      153.1914     
      9220   148.48538      158.5          158.5          158.5          1.4290409      3.2602848      1.7772518     -0.75041392     148.48538    
      9240   135.46949      158.5          158.5          158.5          0.59628707     2.8348067      2.3531727     -3.3991182      135.46949    
      9260   142.04978      158.5          158.5          158.5         -2.1822503     -2.6383228     -2.0979247     -1.8105035      142.04978    
      9280   147.63986      158.5          158.5          158.5          2.2837838      1.9869439      1.3691104      3.4952972      147.63986    
      9300   142.0014       158.5          158.5          158.5         -0.38422554    -1.157618       3.1929014     -3.18796        142.0014     
      9320   136.87306      158.5          158.5          158.5         -0.98880814    -2.8708005     -0.15214754     0.05652362     136.87306    
      9340   144.81779      158.5          158.5          158.5          3.8226298      6.4442043     -1.6579934      6.6816784      144.81779    
      9360   148.92888      158.5          158.5          158.5         -2.3146195     -0.14223511    -3.3209548     -3.4806686      148.92888    
      9380   141.99032      158.5          158.5          158.5          0.85545551     0.14738499     2.2438491      0.1751324      141.99032    
      9400   143.55369      158.5          158.5          158.5          3.4706677      4.9834646      2.0428411      3.3856974      143.55369    
      9420   144.86937      158.5          158.5          158.5         -3.6870633     -2.6685534     -3.5297713     -4.8628653      144.86937    
      9440   148.87015      158.5          158.5          158.5          1.436424       0.65045885     0.21348973     3.4453235      148.87015    
      9460   152.05234      158.5          158.5          158.5          1.2477176      2.4398426      1.9124764     -0.60916613     152.05234    
      9480   148.43192      158.5          158.5          158.5         -1.1881833     -0.28176241     1.6738036     -4.956591       148.43192    
      9500   146.13419      158.5          158.5          158.5          2.1986539      3.8712331      1.7713826      0.95334605     146.13419    
      9520   149.543        158.5          158.5          158.5          1.2736829      3.4971276     -1.9118643      2.2357853      149.543      
      9540   148.74736      158.5          158.5          158.5         -1.0684441     -2.0841481     -0.25644834    -0.86473598     148.74736    
[...]
    550080   133.05048      158.5          158.5          158.5          3.286128       6.1925839      0.37739465     3.2884055      133.05048    
    550100   119.72827      158.5          158.5          158.5          0.21659861     1.1237817     -0.95410142     0.4801155      119.72827    
    550120   119.4858       158.5          158.5          158.5          0.10009932    -0.20912848    -0.11137033     0.62079677     119.4858     
    550140   125.24696      158.5          158.5          158.5         -0.64915051    -1.5893917     -1.1438324      0.78577264     125.24696    
    550160   132.37976      158.5          158.5          158.5         -3.3351895     -2.3636262     -4.497481      -3.1444613      132.37976    
    550180   134.9913       158.5          158.5          158.5         -1.2935246     -2.7363667     -0.69711669    -0.44709042     134.9913     
    550200   124.14408      158.5          158.5          158.5         -2.3084855     -4.7940165     -2.8064739      0.67503389     124.14408    
    550220   127.46843      158.5          158.5          158.5         -2.025188      -1.4576517     -2.9407956     -1.6771167      127.46843    
    550240   124.68216      158.5          158.5          158.5         -0.62583394     1.5100664     -1.5858692     -1.801699       124.68216    
    550260   134.02714      158.5          158.5          158.5         -4.0153142     -3.6025568     -3.5590012     -4.8843846      134.02714    
    550280   136.00933      158.5          158.5          158.5         -3.9656162     -6.8407815     -2.6580468     -2.3980202      136.00933    
    550300   140.28822      158.5          158.5          158.5         -0.97489257    -2.7085787     -0.97766206     0.76156309     140.28822    
    550320   128.37854      158.5          158.5          158.5         -0.84280074     0.45519681    -0.3821692     -2.6014298      128.37854    
    550340   133.20825      158.5          158.5          158.5          1.1452422      0.72157759     1.134329       1.5798199      133.20825    
    550360   145.64399      158.5          158.5          158.5          1.7176152     -1.3259858      2.0286466      4.4501847      145.64399    
    550380   138.58851      158.5          158.5          158.5          1.0152959      1.5263502      1.8301242     -0.31058674     138.58851    
    550400   135.00292      158.5          158.5          158.5         -0.40297975     2.2112687     -3.461343       0.041135087    135.00292    
    550420   143.70044      158.5          158.5          158.5         -1.4634834     -2.7163684     -1.7543288      0.080246903    143.70044    
    550440   131.62109      158.5          158.5          158.5         -0.62712951    -1.822211       1.3465002     -1.4056778      131.62109    
    550460   141.88078      158.5          158.5          158.5         -1.451933       0.43622925    -3.2865692     -1.505459       141.88078    
    550480   133.72718      158.5          158.5          158.5          1.1131386      2.3653791     -1.5129446      2.4869814      133.72718    
    550500   149.72193      158.5          158.5          158.5          1.0145385     -0.61925548     0.87069215     2.7921787      149.72193    
    550520   137.71658      158.5          158.5          158.5          0.96953776     0.47418075     2.6372834     -0.20285089     137.71658    
    550540   148.09574      158.5          158.5          158.5          4.1136468      5.522941       1.8244559      4.9935436      148.09574    
    550560   142.10783      158.5          158.5          158.5          1.0362119      1.8846327     -1.4933699      2.7173729      142.10783    
    550580   149.42444      158.5          158.5          158.5          1.648802       1.0452592      2.8281184      1.0730285      149.42444    
    550600   132.56174      158.5          158.5          158.5          3.1223987      2.4021036      5.1342285      1.8308639      132.56174    
    550620   140.79035      158.5          158.5          158.5          0.41021283    -3.0445402      0.27587261     3.999306       140.79035    
    550640   152.0545       158.5          158.5          158.5          0.25796477    -4.2537798     -1.1154335      6.1431077      152.0545     
    550660   156.92291      158.5          158.5          158.5         -0.20594553     0.62842234    -1.8297158      0.58345683     156.92291    
    550680   148.65314      158.5          158.5          158.5         -1.6990579     -2.0589649     -0.30532895    -2.7328799      148.65314    
    550700   144.47329      158.5          158.5          158.5          0.21749389    -2.9901958      0.62052288     3.0221546      144.47329    
    550720   150.33113      158.5          158.5          158.5          0.14233584    -1.0035842      0.15072523     1.2798665      150.33113    
    550740   144.19911      158.5          158.5          158.5          0.045766295    2.2757922      2.5068951     -4.6453885      144.19911    
    550760   136.88424      158.5          158.5          158.5          1.0414524      1.8252317      0.99478556     0.30434009     136.88424    
    550780   147.9537       158.5          158.5          158.5         -3.110626      -5.3302463     -4.3218609      0.32022922     147.9537     
    550800   143.42412      158.5          158.5          158.5         -3.8981209     -6.3816027     -0.18251867    -5.1302415      143.42412    
    550820   140.57245      158.5          158.5          158.5         -1.319952      -1.1073655     -0.31626477    -2.5362258      140.57245    
    550840   141.15068      158.5          158.5          158.5         -2.8549771     -3.2206136     -2.1484673     -3.1958502      141.15068    
    550860   141.74507      158.5          158.5          158.5         -1.6367589     -3.3769033      0.43636009    -1.9697335      141.74507    
    550880   131.54625      158.5          158.5          158.5          0.88578959    -0.52935801     0.18920333     2.9975235      131.54625    
    550900   134.00238      158.5          158.5          158.5         -1.2027617     -0.31774475    -1.2089187     -2.0816217      134.00238    
    550920   132.87081      158.5          158.5          158.5          0.10775126     1.0405706      0.41873562    -1.1360525      132.87081    
    550940   140.36295      158.5          158.5          158.5         -0.9500215     -4.1788216     -1.0106222      2.3393794      140.36295    
    550960   122.11991      158.5          158.5          158.5         -1.6430403     -7.0948639      0.83587866     1.3298643      122.11991    
    550980   129.63627      158.5          158.5          158.5         -0.904697      -2.0854876     -0.11669379    -0.51190957     129.63627    
    551000   134.3102       158.5          158.5          158.5         -0.81530117    -0.11409678    -2.730417       0.39861026     134.3102     
    551020   134.27443      158.5          158.5          158.5          1.7433264     -0.50288267     0.81180555     4.9210562      134.27443    
    551040   142.3624       158.5          158.5          158.5          1.1662189     -2.7841946      3.828442       2.4544094      142.3624     
    551060   124.14569      158.5          158.5          158.5          1.0980635      0.5685779      1.6164994      1.1091134      124.14569    
    551080   135.2759       158.5          158.5          158.5          0.5456958      2.3155397     -1.0536515      0.37519926     135.2759     
    551100   135.66812      158.5          158.5          158.5         -3.1903972     -5.0385016     -2.9201514     -1.6125386      135.66812    
    551120   133.07837      158.5          158.5          158.5         -1.5139476     -4.3322535      0.35482593    -0.56441524     133.07837    
    551140   131.2862       158.5          158.5          158.5         -0.96715325    -0.7430085     -1.1399971     -1.0184542      131.2862     
    551160   145.27031      158.5          158.5          158.5         -0.9744448     -1.0205924     -1.5824972     -0.32024483     145.27031    
    551180   142.08172      158.5          158.5          158.5          0.5460178     -0.95166271     0.84762486     1.7420912      142.08172    
    551200   145.47326      158.5          158.5          158.5         -0.88109883    -2.0692421      0.86746305    -1.4415174      145.47326    
    551220   153.70077      158.5          158.5          158.5          0.75560221     2.8004826      1.4705044     -2.0041803      153.70077    
    551240   145.21797      158.5          158.5          158.5          0.044284094    0.72475401    -0.93108332     0.33918159     145.21797    
    551260   153.67881      158.5          158.5          158.5         -1.6487903     -3.2491326     -0.28615949    -1.4110789      153.67881    
    551280   137.25447      158.5          158.5          158.5          1.6839194      1.4147195      2.7691839      0.86785477     137.25447    
    551300   160.83993      158.5          158.5          158.5         -1.3181984     -0.68282762    -2.1596396     -1.112128       160.83993    
    551320   141.68938      158.5          158.5          158.5         -0.45257195     2.0102128      0.93763485    -4.3055636      141.68938    
    551340   145.85931      158.5          158.5          158.5          0.96771731     2.1066777      1.1078221     -0.3113478      145.85931    
    551360   143.39223      158.5          158.5          158.5         -0.69198549    -3.501297       0.74491132     0.68042921     143.39223    
    551380   150.85125      158.5          158.5          158.5          0.38731517    -1.0109337      4.9236455     -2.7507662      150.85125    
    551400   145.52319      158.5          158.5          158.5         -1.6419865     -1.9783288     -1.0656631     -1.8819677      145.52319    
    551420   139.08921      158.5          158.5          158.5          1.5071205      1.3087741     -0.99572133     4.2083088      139.08921    
    551440   146.05278      158.5          158.5          158.5          2.3394757      1.6344962      2.7234835      2.6604473      146.05278    
    551460   149.93969      158.5          158.5          158.5          0.95342834     2.4269159      1.405669      -0.97229983     149.93969    
    551480   141.58541      158.5          158.5          158.5          2.9079946      4.0739859      1.7565245      2.8934735      141.58541    
    551500   138.19918      158.5          158.5          158.5         -0.67579427    -3.0738412     -0.88017209     1.9266305      138.19918    
    551520   142.80929      158.5          158.5          158.5         -2.8678908     -4.359343      -2.6096582     -1.6346713      142.80929    
    551540   142.82331      158.5          158.5          158.5         -1.8352962     -0.67239838    -3.1478566     -1.6856336      142.82331    
    551560   135.54449      158.5          158.5          158.5         -1.4190153     -2.8792277     -1.2274548     -0.15036339     135.54449    
    551580   133.05816      158.5          158.5          158.5         -1.4576442     -5.5856699     -1.7936427      3.0063801      133.05816    
    551600   131.22957      158.5          158.5          158.5          1.3646279      1.588745      -0.27486908     2.7800079      131.22957    
    551620   134.4384       158.5          158.5          158.5          2.7717033      6.2840061      3.7546726     -1.7235688      134.4384     
    551640   138.16962      158.5          158.5          158.5          0.84312398     3.2102698      2.3679027     -3.0488006      138.16962    
    551660   128.28737      158.5          158.5          158.5          3.6692629      4.6471282      1.992123       4.3685373      128.28737    
    551680   141.90107      158.5          158.5          158.5          1.5422705      4.0031355      0.11019637     0.51347954     141.90107    
    551700   143.3388       158.5          158.5          158.5         -2.0556449      0.50089988    -1.367649      -5.3001856      143.3388     
    551720   132.45642      158.5          158.5          158.5          0.5191267      1.9666454      0.42603747    -0.83530272     132.45642    
    551740   143.77845      158.5          158.5          158.5         -2.0507663     -3.4228424     -2.6258887     -0.10356775     143.77845    
    551760   143.96888      158.5          158.5          158.5         -1.3135897     -3.0147055     -1.8872684      0.96120481     143.96888    
    551780   147.83744      158.5          158.5          158.5          1.5449315      3.5120304      1.9458233     -0.82305915     147.83744    
    551800   137.60472      158.5          158.5          158.5         -0.63496518    -1.7301963     -0.40960829     0.23490902     137.60472    
    551820   143.41796      158.5          158.5          158.5          0.28522782    -1.8032973      0.94633187     1.7126489      143.41796    
    551840   134.00544      158.5          158.5          158.5         -2.3112391     -2.4320436     -2.2960318     -2.2056418      134.00544    
    551860   134.43769      158.5          158.5          158.5         -1.707237      -3.2142977     -0.34480621    -1.5626072      134.43769    
    551880   143.24582      158.5          158.5          158.5         -0.65023349     1.0909041     -0.24035543    -2.8012491      143.24582    
    551900   137.01395      158.5          158.5          158.5         -1.9523384     -1.2657348     -3.8435102     -0.74777034     137.01395    
    551920   133.04861      158.5          158.5          158.5          3.7139814      2.5648567      1.3702234      7.2068641      133.04861    
    551940   136.88901      158.5          158.5          158.5          1.0417599      1.5945588      3.2722726     -1.7415518      136.88901    
    551960   146.007        158.5          158.5          158.5         -0.68412878    -1.1832479     -0.0093271855  -0.85981123     146.007      
    551980   134.97889      158.5          158.5          158.5          4.6519834      6.0648357      0.079439934    7.8116747      134.97889    
    552000   140.26539      158.5          158.5          158.5         -2.087682      -2.4949311     -1.7349949     -2.0331201      140.26539    
    552020   133.95113      158.5          158.5          158.5          1.2412832      1.3309916      2.5569602     -0.16410212     133.95113    
    552040   145.458        158.5          158.5          158.5          3.4950323      3.4883396      2.901846       4.0949111      145.458      
    552060   134.57639      158.5          158.5          158.5         -1.0589601     -0.78133669    -1.6753027     -0.72024088     134.57639    
    552080   130.69806      158.5          158.5          158.5          3.1906225      4.7373854      1.151599       3.6828832      130.69806    
    552100   138.63933      158.5          158.5          158.5         -0.91600936     0.13128774    -0.33985036    -2.5394655      138.63933    
    552120   139.60939      158.5          158.5          158.5         -2.7882434     -0.72995706    -1.8439265     -5.7908465      139.60939    
    552140   134.68541      158.5          158.5          158.5          1.1765509      4.998101      -0.17614977    -1.2922986      134.68541    
    552160   127.9533       158.5          158.5          158.5         -0.66116769    -0.061520709   -1.8989279     -0.023054429    127.9533     
    552180   136.70413      158.5          158.5          158.5          0.41170547    -0.56794655     2.1696416     -0.36657868     136.70413    
    552200   128.16271      158.5          158.5          158.5          2.260814       3.1684946      2.9408667      0.67308063     128.16271    
    552220   134.11353      158.5          158.5          158.5         -1.1604929     -1.5212694     -0.97178983    -0.98841939     134.11353    
    552240   133.82412      158.5          158.5          158.5         -1.4137726     -3.4660077      0.19591907    -0.97122911     133.82412    
    552260   133.88477      158.5          158.5          158.5         -0.46871365    -0.72532639    -0.24939557    -0.43141898     133.88477    
    552280   131.30254      158.5          158.5          158.5         -0.98722996     0.76939344    -1.8725862     -1.8584972      131.30254    
    552300   136.73855      158.5          158.5          158.5         -0.85705541    -0.81209702     0.1313595     -1.8904287      136.73855    
    552320   132.89338      158.5          158.5          158.5         -1.042224      -4.1598365      1.1881334     -0.15496895     132.89338    
    552340   137.28914      158.5          158.5          158.5         -0.60526751    -2.345383       1.237458      -0.70787751     137.28914    
    552360   128.75601      158.5          158.5          158.5         -0.58322929    -0.89924626     0.2853018     -1.1357434      128.75601    
    552380   130.2947       158.5          158.5          158.5         -2.0685236     -3.8984875     -1.7054594     -0.60162376     130.2947     
    552400   128.88427      158.5          158.5          158.5         -0.92869973    -4.2898698      0.0051301836   1.4986404      128.88427    
    552420   133.88768      158.5          158.5          158.5          0.3176391     -1.2745794      0.23944947     1.9880472      133.88768    
    552440   133.80581      158.5          158.5          158.5         -0.31651061     1.4706264     -1.1770808     -1.2430775      133.80581    
    552460   135.81058      158.5          158.5          158.5          0.16203041     1.3262547      0.17151109    -1.0116746      135.81058    
    552480   132.7333       158.5          158.5          158.5          1.8989384      2.1948877      1.8522877      1.6496398      132.7333     
    552500   141.50654      158.5          158.5          158.5         -0.88592843    -0.53348309    -0.70736456    -1.4169377      141.50654    
    552520   143.41756      158.5          158.5          158.5         -0.04933637     0.20170144    -0.16874914    -0.18096141     143.41756    
    552540   143.38023      158.5          158.5          158.5          0.61093825     0.93942161     1.1647385     -0.27134531     143.38023    
    552560   134.88663      158.5          158.5          158.5         -1.9278017     -3.661919      -0.064242854   -2.0572431      134.88663    
    552580   149.22876      158.5          158.5          158.5          1.8190022      0.5384905      0.80540994     4.1131062      149.22876    
    552600   138.13885      158.5          158.5          158.5          1.5391421      2.8969105      0.56267715     1.1578385      138.13885    
    552620   150.58159      158.5          158.5          158.5         -0.56128778     0.46758323     1.187362      -3.3388086      150.58159    
    552640   143.40455      158.5          158.5          158.5          3.3664556      0.37368994     4.5836483      5.1420284      143.40455    
    552660   145.03167      158.5          158.5          158.5         -0.58993939    -4.2105891      0.55340526     1.8873657      145.03167    
    552680   147.06949      158.5          158.5          158.5         -0.035359676    1.3089284      1.6059265     -3.0209339      147.06949    
    552700   136.44175      158.5          158.5          158.5          4.5353431      6.9311437      4.2861777      2.3887078      136.44175    
    552720   147.63722      158.5          158.5          158.5         -2.2085837     -2.9796128     -3.2866499     -0.35948838     147.63722    
    552740   134.47377      158.5          158.5          158.5          0.23683195    -2.8782248     -0.27959785     3.8683185      134.47377    
    552760   135.19401      158.5          158.5          158.5          2.3196181      0.2902034      3.3206939      3.347957       135.19401    
ERROR on proc 0: Bond atoms 99 100 missing on proc 0 at step 552771 (src/src/ntopo_bond_all.cpp:59)
Last command: run 1000000
