LAMMPS (7 Feb 2024)
OMP_NUM_THREADS environment is not set. Defaulting to 1 thread. (src/comm.cpp:98)
  using 1 OpenMP thread(s) per MPI task
Loaded 1 plugins from C:\Users\Adrien.FONUK-8MURIJ6UE\AppData\Local\LAMMPS 64-bit 7Feb2024\plugins
