LAMMPS (2 Aug 2023 - Update 2)
region box block 0 10 0 5 -0.5 0.5
info system
Total wall time: 0:00:00
