LAMMPS (2 Aug 2023 - Update 2)


# ----------------- Init Section -----------------

include "system.in.init"
# -- Styles used in "ForceField" --
# -- (Changing these styles will change the formulas above) --
units           real
atom_style      full
bond_style      harmonic
angle_style     harmonic
dihedral_style  charmm
pair_style      lj/cut 11.0


# ----------------- Atom Definition Section -----------------

read_data "system.data"
Reading data file ...
  orthogonal box = (0 0 0) to (90 90 90)
  1 by 1 by 1 MPI processor grid
  reading atoms ...
  378 atoms
  scanning bonds ...
  2 = max bonds/atom
  scanning angles ...
  3 = max angles/atom
  scanning dihedrals ...
  2 = max dihedrals/atom
  reading bonds ...
  351 bonds
  reading angles ...
  459 angles
  reading dihedrals ...
  270 dihedrals
Finding 1-2 1-3 1-4 neighbors ...
  special bond factors lj:    0        0        0       
  special bond factors coul:  0        0        0       
     3 = max # of 1-2 neighbors
     4 = max # of 1-3 neighbors
     8 = max # of 1-4 neighbors
    11 = max # of special neighbors
  special bonds CPU = 0.001 seconds
  read_data CPU = 0.066 seconds

# ----------------- Settings Section -----------------



include "system.in.settings"
# Pairwise (non-bonded) interactions:
#           atomType1 atomType2   epsilon sigma
pair_coeff   1 1       0.10 2.0
pair_coeff   2  2        0.50 3.6
# (Interactions between different atoms are determined by mixing rules.)
#             bond-type        k     r0
bond_coeff  1   15.0   3.4
bond_coeff  2    15.0   3.7
#             angle-type       k    theta0
angle_coeff 1   30.00  114
angle_coeff 2  30.00  132
dihedral_coeff 1   -0.5 1 -180 0.0
dihedral_coeff 2   -1.5 1 -180 0.0

velocity 	all create 300.0 1231
fix		1 all nve/limit 0.05
fix 2 all brownian 30.0 12908410 gamma_t 3.0 rng gaussian # Compute a correct 300K simulation, check the value for gamma_t
thermo_style	custom step temp
thermo          10000
timestep	1
run		100000
Generated 1 of 1 mixed pair_coeff terms from geometric mixing rule
WARNING: One or more atoms are time integrated more than once (src/src/modify.cpp:289)
Neighbor list info ...
  update: every = 1 steps, delay = 0 steps, check = yes
  max neighbors/atom: 2000, page size: 100000
  master list distance cutoff = 13
  ghost atom cutoff = 13
  binsize = 6.5, bins = 14 14 14
  1 neighbor lists, perpetual/occasional/extra = 1 0 0
  (1) pair lj/cut, perpetual
      attributes: half, newton on
      pair build: half/bin/newton
      stencil: half/bin/3d
      bin: standard
Per MPI rank memory allocation (min/avg/max) = 8.323 | 8.323 | 8.323 Mbytes
   Step          Temp     
         0   300          
     10000   644.08263    
     20000   682.52169    
     30000   686.48406    
     40000   594.59055    
     50000   649.04645    
     60000   644.92117    
     70000   658.04466    
     80000   682.92473    
     90000   662.90691    
    100000   609.3202     
Loop time of 24.0947 on 1 procs for 100000 steps with 378 atoms

Performance: 358.585 ns/day, 0.067 hours/ns, 4150.287 timesteps/s, 1.569 Matom-step/s
57.6% CPU use with 1 MPI tasks x no OpenMP threads

MPI task timing breakdown:
Section |  min time  |  avg time  |  max time  |%varavg| %total
---------------------------------------------------------------
Pair    | 3.0924     | 3.0924     | 3.0924     |   0.0 | 12.83
Bond    | 11.656     | 11.656     | 11.656     |   0.0 | 48.38
Neigh   | 0.027427   | 0.027427   | 0.027427   |   0.0 |  0.11
Comm    | 0.5722     | 0.5722     | 0.5722     |   0.0 |  2.37
Output  | 0.00030939 | 0.00030939 | 0.00030939 |   0.0 |  0.00
Modify  | 8.1035     | 8.1035     | 8.1035     |   0.0 | 33.63
Other   |            | 0.6427     |            |       |  2.67

Nlocal:            378 ave         378 max         378 min
Histogram: 1 0 0 0 0 0 0 0 0 0
Nghost:            472 ave         472 max         472 min
Histogram: 1 0 0 0 0 0 0 0 0 0
Neighs:            826 ave         826 max         826 min
Histogram: 1 0 0 0 0 0 0 0 0 0

Total # of neighbors = 826
Ave neighs/atom = 2.1851852
Ave special neighs/atom = 7.1428571
Neighbor list builds = 67
Dangerous builds = 0
unfix 1
unfix 2

#####################################################
# Define Settings
compute eng all pe/atom
compute eatoms all reduce sum c_eng

#####################################################
# Minimization

dump mydmp all atom 100 dump.lammpstrj

reset_timestep 0
fix 1 all nvt temp 300.0 300.0 100.0
thermo 20
thermo_style custom step pe lx ly lz press pxx pyy pzz c_eatoms
min_style cg
minimize 1e-25 1e-25 500000 1000000
Generated 1 of 1 mixed pair_coeff terms from geometric mixing rule
Per MPI rank memory allocation (min/avg/max) = 9.948 | 9.948 | 9.948 Mbytes
   Step         PotEng           Lx             Ly             Lz           Press           Pxx            Pyy            Pzz          c_eatoms   
         0  -415.26473      90             90             90             32.258303      37.622663      18.877514      40.274731     -415.26473    
        20  -467.93335      90             90             90             42.690224      44.961053      37.405274      45.704345     -467.93335    
        40  -470.45717      90             90             90             42.340119      43.101763      37.941291      45.977303     -470.45717    
        60  -471.1533       90             90             90             42.837277      44.058751      38.396019      46.057061     -471.1533     
        80  -471.57689      90             90             90             43.106272      44.206867      38.907588      46.204362     -471.57689    
       100  -471.69045      90             90             90             42.9318        44.541724      38.082019      46.171656     -471.69045    
       120  -471.71355      90             90             90             42.867033      44.102312      38.318107      46.180679     -471.71355    
       140  -471.71598      90             90             90             42.920627      44.201344      38.373589      46.18695      -471.71598    
       160  -471.71632      90             90             90             42.929475      44.237346      38.363732      46.187347     -471.71632    
       180  -471.7165       90             90             90             42.934494      44.225081      38.38959       46.18881      -471.7165     
       200  -471.71666      90             90             90             42.922069      44.207861      38.371429      46.186915     -471.71666    
       220  -471.71674      90             90             90             42.930221      44.217099      38.385593      46.187971     -471.71674    
       240  -471.71697      90             90             90             42.940973      44.245516      38.387684      46.189718     -471.71697    
       260  -471.72062      90             90             90             42.813285      43.953454      38.305016      46.181386     -471.72062    
       280  -471.74914      90             90             90             42.938689      44.244162      38.386819      46.185086     -471.74914    
       300  -471.75952      90             90             90             42.965929      44.166732      38.530114      46.200942     -471.75952    
       320  -471.76694      90             90             90             42.963825      44.233613      38.4599        46.197962     -471.76694    
       340  -471.81058      90             90             90             42.791551      44.138283      38.081412      46.154958     -471.81058    
       360  -472.25577      90             90             90             42.504877      42.870578      38.500459      46.143592     -472.25577    
       380  -472.57842      90             90             90             42.738606      43.625803      38.423921      46.166095     -472.57842    
       400  -472.68861      90             90             90             42.884771      44.150751      38.332243      46.171318     -472.68861    
       420  -472.75996      90             90             90             43.029666      44.521765      38.38257       46.184663     -472.75996    
       440  -472.77773      90             90             90             43.01449       44.354123      38.491911      46.197435     -472.77773    
       459  -472.78246      90             90             90             42.918564      44.179928      38.38574       46.190022     -472.78246    
Loop time of 0.125019 on 1 procs for 459 steps with 378 atoms

85.9% CPU use with 1 MPI tasks x no OpenMP threads

Minimization stats:
  Stopping criterion = linesearch alpha is zero
  Energy initial, next-to-last, final = 
     -415.264725743611  -472.782459061623  -472.782459061623
  Force two-norm initial, final = 62.217373 0.061810538
  Force max component initial, final = 8.8253018 0.010765583
  Final line search alpha, max atom move = 1.9073486e-06 2.0533719e-08
  Iterations, force evaluations = 459 940

MPI task timing breakdown:
Section |  min time  |  avg time  |  max time  |%varavg| %total
---------------------------------------------------------------
Pair    | 0.024452   | 0.024452   | 0.024452   |   0.0 | 19.56
Bond    | 0.077533   | 0.077533   | 0.077533   |   0.0 | 62.02
Neigh   | 0.0036117  | 0.0036117  | 0.0036117  |   0.0 |  2.89
Comm    | 0.0040102  | 0.0040102  | 0.0040102  |   0.0 |  3.21
Output  | 0.0039762  | 0.0039762  | 0.0039762  |   0.0 |  3.18
Modify  | 0          | 0          | 0          |   0.0 |  0.00
Other   |            | 0.01144    |            |       |  9.15

Nlocal:            378 ave         378 max         378 min
Histogram: 1 0 0 0 0 0 0 0 0 0
Nghost:            474 ave         474 max         474 min
Histogram: 1 0 0 0 0 0 0 0 0 0
Neighs:            886 ave         886 max         886 min
Histogram: 1 0 0 0 0 0 0 0 0 0

Total # of neighbors = 886
Ave neighs/atom = 2.3439153
Ave special neighs/atom = 7.1428571
Neighbor list builds = 8
Dangerous builds = 0

run 100000
Generated 1 of 1 mixed pair_coeff terms from geometric mixing rule
Per MPI rank memory allocation (min/avg/max) = 9.963 | 9.963 | 9.963 Mbytes
   Step         PotEng           Lx             Ly             Lz           Press           Pxx            Pyy            Pzz          c_eatoms   
       459  -472.78246      90             90             90             42.918564      44.179928      38.38574       46.190022     -472.78246    
       460  -472.5336       90             90             90             42.949733      44.159016      38.455031      46.235152     -472.5336     
       480  -395.40303      90             90             90             30.776273      29.585756      20.527361      42.2157       -395.40303    
       500  -344.34202      90             90             90             17.635511      20.588031     -2.9674478      35.28595      -344.34202    
       520  -324.33849      90             90             90             8.2306075      18.063572     -22.897386      29.525636     -324.33849    
       540  -278.64256      90             90             90            -2.6016927      10.674949     -43.096987      24.616959     -278.64256    
       560  -261.07514      90             90             90            -7.5289839      11.490503     -55.225528      21.148073     -261.07514    
       580  -235.73146      90             90             90            -11.636803      7.0622979     -61.016059      19.043351     -235.73146    
       600  -243.92086      90             90             90            -11.406892     -0.0072601849  -53.012965      18.799549     -243.92086    
       620  -270.15942      90             90             90            -8.9680949     -6.0933041     -39.230478      18.419497     -270.15942    
       640  -268.75876      90             90             90            -9.1716653     -16.529657     -28.272114      17.286775     -268.75876    
       660  -270.23216      90             90             90            -7.3531393     -18.944535     -20.336782      17.221899     -270.23216    
       680  -274.98686      90             90             90            -3.1056896     -18.420865     -8.4966229      17.600419     -274.98686    
       700  -288.86801      90             90             90             3.3888434     -18.776311      11.018488      17.924354     -288.86801    
       720  -299.28745      90             90             90             9.3338831     -15.044326      24.667198      18.378777     -299.28745    
       740  -296.51297      90             90             90             12.358545     -11.559687      30.827867      17.807455     -296.51297    
       760  -278.64453      90             90             90             11.948412     -9.611119       30.024324      15.432031     -278.64453    
       780  -252.77909      90             90             90             9.4497909     -13.585903      28.708057      13.227218     -252.77909    
       800  -253.22895      90             90             90             9.9511253     -17.488239      32.896903      14.444712     -253.22895    
       820  -268.99571      90             90             90             12.852501     -13.497026      34.141384      17.913146     -268.99571    
       840  -261.67501      90             90             90             12.901387     -11.127884      30.329307      19.50274      -261.67501    
       860  -261.44257      90             90             90             12.203601     -11.123304      27.147215      20.586892     -261.44257    
       880  -296.7348       90             90             90             12.608722     -11.24489       27.056266      22.014789     -296.7348     
       900  -302.09806      90             90             90             6.4703245     -16.865659      16.497537      19.779096     -302.09806    
       920  -290.0937       90             90             90            -2.3663545     -22.945274      0.31433774     15.531873     -290.0937     
       940  -291.22471      90             90             90            -7.8926815     -22.883589     -12.8603        12.065844     -291.22471    
       960  -273.94083      90             90             90            -12.932515     -19.06735      -28.853688      9.1234933     -273.94083    
       980  -276.68111      90             90             90            -13.289482     -10.702872     -36.845194      7.6796199     -276.68111    
      1000  -274.87027      90             90             90            -12.869769     -0.086466054   -44.04375       5.5209087     -274.87027    
      1020  -250.35259      90             90             90            -14.532081      3.7961942     -50.869561      3.4771241     -250.35259    
      1040  -257.1616       90             90             90            -12.064115      7.1844692     -47.29818       3.9213645     -257.1616     
      1060  -265.36451      90             90             90            -9.7685808      8.4536458     -40.922331      3.162943      -265.36451    
      1080  -265.22138      90             90             90            -9.4000119     -0.20854783    -28.689974      0.69848622    -265.22138    
      1100  -282.77967      90             90             90            -6.9402318     -1.8773638     -17.727106     -1.2162259     -282.77967    
      1120  -289.33683      90             90             90            -4.767562      -0.4783665     -11.43877      -2.3855497     -289.33683    
      1140  -279.14785      90             90             90            -2.9978872     -5.8386546     -0.46369025    -2.6913168     -279.14785    
      1160  -283.99504      90             90             90             1.8655203     -6.1327609      13.95768      -2.2283584     -283.99504    
      1180  -275.73668      90             90             90             5.0092196     -9.1212246      25.421219     -1.2723359     -275.73668    
      1200  -245.73775      90             90             90             5.3155141     -11.57452       27.746497     -0.22543483    -245.73775    
      1220  -244.1459       90             90             90             9.6731707     -5.8328565      33.613067      1.2393022     -244.1459     
      1240  -244.74882      90             90             90             14.796645     -2.3814007      44.301493      2.4698424     -244.74882    
      1260  -242.01342      90             90             90             19.051308      4.4407988      49.256816      3.4563093     -242.01342    
      1280  -242.44213      90             90             90             22.298709      8.6258582      52.845884      5.424384      -242.44213    
      1300  -231.93008      90             90             90             22.25974       5.778591       53.511578      7.48905       -231.93008    
      1320  -243.39279      90             90             90             22.377985      8.8547101      50.395566      7.883679      -243.39279    
      1340  -247.74201      90             90             90             19.051425      8.9599886      42.998146      5.1961396     -247.74201    
      1360  -241.11407      90             90             90             12.22978       4.6085415      30.067103      2.0136942     -241.11407    
      1380  -233.89118      90             90             90             4.2903757     -3.0229499      14.811933      1.0821445     -233.89118    
      1400  -227.3374       90             90             90            -3.228208      -13.202869      2.5307219      0.98752359    -227.3374     
      1420  -245.36937      90             90             90            -7.0497495     -13.488949     -6.855811      -0.8044884     -245.36937    
      1440  -230.89199      90             90             90            -14.494833     -16.938717     -22.3072       -4.2385806     -230.89199    
      1460  -216.96355      90             90             90            -21.417828     -23.976221     -36.219784     -4.0574775     -216.96355    
      1480  -233.92728      90             90             90            -23.023686     -22.207694     -44.143749     -2.7196159     -233.92728    
      1500  -227.97711      90             90             90            -24.543345     -22.796335     -44.857381     -5.9763194     -227.97711    
      1520  -239.12006      90             90             90            -20.784113     -19.799376     -34.304615     -8.2483479     -239.12006    
      1540  -242.2502       90             90             90            -15.796837     -13.020769     -26.679113     -7.6906283     -242.2502     
      1560  -229.79164      90             90             90            -12.189021     -12.304383     -18.532556     -5.730124      -229.79164    
      1580  -245.97253      90             90             90            -5.3652779     -8.8331875     -5.8444721     -1.418174      -245.97253    
      1600  -244.70888      90             90             90            -1.2212865     -7.4405343      2.1653051      1.6113698     -244.70888    
      1620  -231.86512      90             90             90             1.031073      -8.9599182      8.6000278      3.4531094     -231.86512    
      1640  -235.41382      90             90             90             5.2411259     -5.1921862      13.93256       6.9830041     -235.41382    
      1660  -235.05373      90             90             90             8.9875416     -4.5947208      21.984291      9.5730545     -235.05373    
      1680  -232.12673      90             90             90             12.590684     -4.093814       31.546737      10.319128     -232.12673    
      1700  -242.4238       90             90             90             17.876895      3.3790519      37.724672      12.526962     -242.4238     
      1720  -248.07991      90             90             90             21.469578      9.4452927      41.4884        13.475042     -248.07991    
      1740  -236.06264      90             90             90             20.609512      10.677297      40.262165      10.889074     -236.06264    
      1760  -237.62288      90             90             90             18.71089       10.850637      37.305454      7.9765798     -237.62288    
      1780  -240.84556      90             90             90             15.083216      12.130901      31.961745      1.1570033     -240.84556    
      1800  -231.82799      90             90             90             9.4968414      14.691279      23.590887     -9.7916418     -231.82799    
      1820  -228.74799      90             90             90             5.4824588      16.390453      16.676696     -16.619773     -228.74799    
      1840  -223.79139      90             90             90             2.6432705      16.531464      8.0656082     -16.667261     -223.79139    
      1860  -220.49161      90             90             90             1.44224        16.699295     -2.0668093     -10.305766     -220.49161    
      1880  -216.28415      90             90             90             1.3941505      15.315807     -10.015316     -1.1180392     -216.28415    
      1900  -206.54318      90             90             90             1.1117607      12.781814     -14.118613      4.672082      -206.54318    
      1920  -209.14292      90             90             90             1.7869853      14.24725      -16.989188      8.1028934     -209.14292    
      1940  -216.12927      90             90             90             1.9971882      15.083722     -19.414455      10.322297     -216.12927    
      1960  -212.77442      90             90             90             0.33829434     10.183329     -17.918083      8.7496375     -212.77442    
      1980  -208.62986      90             90             90            -0.45178707     6.180283      -14.316142      6.7804979     -208.62986    
      2000  -215.10589      90             90             90             2.305521       6.8676443     -8.4525656      8.5014843     -215.10589    
      2020  -220.63436      90             90             90             6.5815045      11.007174     -2.7786865      11.516026     -220.63436    
      2040  -217.18439      90             90             90             9.5716718      11.937875      0.83289986     15.94424      -217.18439    
      2060  -221.201        90             90             90             12.237928      8.9933041      5.7880603      21.932419     -221.201      
      2080  -228.40882      90             90             90             14.396995      11.034774      7.3845481      24.771664     -228.40882    
      2100  -219.08945      90             90             90             14.207695      14.290766      6.0279611      22.304359     -219.08945    
      2120  -214.0045       90             90             90             14.170871      19.110683      9.4797016      13.922229     -214.0045     
      2140  -223.72805      90             90             90             14.729536      26.108672      13.50073       4.5792072     -223.72805    
      2160  -212.8533       90             90             90             11.535841      23.854079      9.9990864      0.75435727    -212.8533     
      2180  -208.9935       90             90             90             9.3753456      20.902748      6.5939071      0.62938142    -208.9935     
      2200  -220.78309      90             90             90             10.154204      20.73952       8.4647569      1.2583342     -220.78309    
      2220  -214.78013      90             90             90             9.4611208      14.140949      11.579988      2.6624249     -214.78013    
      2240  -222.27758      90             90             90             10.48306       8.1112023      17.941007      5.3969703     -222.27758    
      2260  -222.63991      90             90             90             10.542367      3.2531185      21.612509      6.7614728     -222.63991    
      2280  -215.99741      90             90             90             9.7126998      3.2330279      20.530741      5.3743304     -215.99741    
      2300  -230.16574      90             90             90             11.094902      12.79868       17.791364      2.6946617     -230.16574    
      2320  -217.05826      90             90             90             8.2397081      17.222104      9.1512092     -1.6541889     -217.05826    
      2340  -210.54549      90             90             90             5.1463414      15.755926      2.9772398     -3.294142      -210.54549    
      2360  -220.36353      90             90             90             4.067246       13.265746      1.3532917     -2.4172995     -220.36353    
      2380  -208.97357      90             90             90             1.7169931      10.324382     -0.73037201    -4.4430307     -208.97357    
      2400  -208.2466       90             90             90             2.4088194      14.068606     -0.40592143    -6.4362264     -208.2466     
      2420  -204.36413      90             90             90             3.8103568      19.659325     -1.9982492     -6.2300052     -204.36413    
      2440  -198.13278      90             90             90             4.7701899      23.268159     -6.2710748     -2.686515      -198.13278    
      2460  -197.11103      90             90             90             5.7792886      24.167011     -10.043702      3.214557      -197.11103    
      2480  -191.36481      90             90             90             5.7524014      22.850565     -10.613053      5.0196926     -191.36481    
      2500  -199.91594      90             90             90             7.0969759      24.838571     -4.7940058      1.2463629     -199.91594    
      2520  -204.22963      90             90             90             7.7142738      24.709278      2.4221327     -3.9885892     -204.22963    
      2540  -206.4637       90             90             90             7.9922611      20.827806      9.267645      -6.1186677     -206.4637     
      2560  -216.53328      90             90             90             9.566298       14.678042      19.13935      -5.1184976     -216.53328    
      2580  -220.87015      90             90             90             11.134957      7.2714425      30.48498      -4.3515514     -220.87015    
      2600  -225.07027      90             90             90             12.470931      5.2056224      37.759566     -5.5523941     -225.07027    
      2620  -222.14789      90             90             90             11.280056      2.3236796      37.397752     -5.8812624     -222.14789    
      2640  -218.16057      90             90             90             7.8599921     -5.7716057      31.594591     -2.2430094     -218.16057    
      2660  -219.82587      90             90             90             4.0785685     -11.449766      22.699435      0.98603646    -219.82587    
      2680  -219.97111      90             90             90             0.54830174    -14.468679      13.307682      2.8059026     -219.97111    
      2700  -220.90376      90             90             90            -1.8615464     -17.091818      5.6385132      5.8686656     -220.90376    
      2720  -219.63041      90             90             90            -4.0205853     -19.301774     -0.72422132     7.9642394     -219.63041    
      2740  -218.09055      90             90             90            -6.108746      -21.751282     -6.0540681      9.4791122     -218.09055    
      2760  -211.81809      90             90             90            -7.8387008     -23.111888     -10.728649      10.324434     -211.81809    
      2780  -212.74312      90             90             90            -6.7096093     -18.829241     -13.475304      12.175718     -212.74312    
      2800  -224.99745      90             90             90            -3.2085798     -8.7920957     -15.309414      14.475771     -224.99745    
      2820  -225.24656      90             90             90            -2.0552917     -0.42315665    -15.959225      10.216507     -225.24656    
      2840  -227.79142      90             90             90            -1.5971733      3.8533366     -11.432816      2.7879597     -227.79142    
      2860  -232.57172      90             90             90            -1.7385235      2.3171806     -7.399007      -0.13374401    -232.57172    
      2880  -219.13395      90             90             90            -4.191373      -1.9950441     -11.713812      1.1347368     -219.13395    
      2900  -207.56316      90             90             90            -5.6335477     -0.52532119    -17.253881      0.87855923    -207.56316    
      2920  -203.19265      90             90             90            -5.5319106      0.73697119    -14.143778     -3.1889247     -203.19265    
      2940  -206.20985      90             90             90            -4.4358755     -2.7257969     -7.068983      -3.5128467     -206.20985    
      2960  -223.09945      90             90             90            -1.5702097     -4.3000992     -1.292643       0.88211312    -223.09945    
      2980  -227.64485      90             90             90            -0.067806402   -2.8939021      2.8838898     -0.1934069     -227.64485    
      3000  -219.52681      90             90             90            -0.37300348    -0.14986177     5.4261649     -6.3953135     -219.52681    
      3020  -219.33649      90             90             90            -0.44391751     0.3032066      8.3725528     -10.007512     -219.33649    
      3040  -218.44502      90             90             90            -1.0443803     -3.7907293      10.839116     -10.181528     -218.44502    
      3060  -221.0902       90             90             90            -0.71959608    -10.253586      14.774675     -6.6798775     -221.0902     
      3080  -221.53757      90             90             90             0.3393878     -15.90988       18.886526     -1.9584825     -221.53757    
      3100  -210.68825      90             90             90             0.66241079    -16.858819      19.150655     -0.30460371    -210.68825    
      3120  -211.51632      90             90             90             2.4459384     -13.899709      21.097744      0.13977977    -211.51632    
      3140  -222.01449      90             90             90             5.3177019     -8.9352336      25.101245     -0.21290543    -222.01449    
      3160  -223.54811      90             90             90             7.4096481     -6.1367467      26.485808      1.8798829     -223.54811    
      3180  -216.71491      90             90             90             8.9848174     -8.3562781      24.04793       11.2628       -216.71491    
      3200  -219.85077      90             90             90             11.706105     -6.9878869      21.424262      20.681939     -219.85077    
      3220  -232.97856      90             90             90             14.52755      -0.32168021     21.520374      22.383955     -232.97856    
      3240  -230.67955      90             90             90             14.184654      5.608742       18.39078       18.554442     -230.67955    
      3260  -227.08114      90             90             90             13.278837      9.2904892      12.21455       18.331471     -227.08114    
      3280  -228.73978      90             90             90             13.278626      9.608288       5.5578528      24.669738     -228.73978    
      3300  -230.78505      90             90             90             13.383686      13.397947     -0.73984138     27.492952     -230.78505    
      3320  -234.58824      90             90             90             13.034606      22.955222     -6.2797518      22.428348     -234.58824    
      3340  -221.05121      90             90             90             9.6766153      29.896025     -16.69862       15.832441     -221.05121    
      3360  -213.41563      90             90             90             6.883703       35.084071     -27.06407       12.631109     -213.41563    
      3380  -217.24367      90             90             90             5.9673589      38.920823     -32.887726      11.868979     -217.24367    
      3400  -216.7804       90             90             90             4.6233611      37.593536     -36.704197      12.980743     -216.7804     
      3420  -220.86277      90             90             90             3.3512764      33.32403      -36.79765       13.527449     -220.86277    
      3440  -214.72701      90             90             90             0.61133783     28.969536     -33.019634      5.8841119     -214.72701    
      3460  -216.61184      90             90             90            -0.66998873     26.504643     -23.282875     -5.231734      -216.61184    
      3480  -233.01219      90             90             90             0.60626327     24.182953     -12.957943     -9.406221      -233.01219    
      3500  -238.80041      90             90             90             1.1568872      19.838622     -9.4190474     -6.9489131     -238.80041    
      3520  -240.53925      90             90             90             1.5431162      15.459649     -7.963304      -2.8669961     -240.53925    
      3540  -237.72744      90             90             90             1.973863       11.268661     -2.9604967     -2.3865755     -237.72744    
      3560  -243.39018      90             90             90             4.0761862      8.2461408      7.5115753     -3.5291575     -243.39018    
      3580  -243.04749      90             90             90             5.578325       3.8345961      16.080601     -3.180222      -243.04749    
      3600  -221.665        90             90             90             4.1577403     -3.2911971      19.384079     -3.6196612     -221.665      
      3620  -216.30832      90             90             90             4.3739311     -5.4720564      21.564431     -2.970581      -216.30832    
      3640  -221.6343       90             90             90             6.4014013     -4.9115194      22.927165      1.1885579     -221.6343     
      3660  -222.85614      90             90             90             9.2470086     -8.4269627      27.870248      8.2977409     -222.85614    
      3680  -219.93792      90             90             90             12.800646     -10.632478      34.714937      14.31948      -219.93792    
      3700  -214.5962       90             90             90             16.039064     -7.577149       39.630489      16.063851     -214.5962     
      3720  -224.21459      90             90             90             19.707646     -1.1703401      42.898729      17.39455      -224.21459    
      3740  -230.17851      90             90             90             20.929698      4.2663513      39.542714      18.980028     -230.17851    
      3760  -224.46639      90             90             90             18.607717      3.1562279      34.731845      17.935078     -224.46639    
      3780  -222.15436      90             90             90             14.932123     -1.9494086      32.895554      13.850225     -222.15436    
      3800  -222.53005      90             90             90             10.498072     -5.1013422      27.433046      9.1625113     -222.53005    
      3820  -226.5516       90             90             90             6.2646449     -5.4760549      18.0069        6.2630894     -226.5516     
      3840  -225.86517      90             90             90             2.2179857     -3.0879956      6.6557069      3.0862458     -225.86517    
      3860  -220.83961      90             90             90            -1.2782363     -0.21232868    -2.6899863     -0.93239407    -220.83961    
      3880  -215.40925      90             90             90            -4.5908859     -1.1839586     -9.0941681     -3.494531      -215.40925    
      3900  -210.893        90             90             90            -8.3386789     -2.4527729     -16.319091     -6.2441724     -210.893      
      3920  -217.72668      90             90             90            -10.670886     -0.37524308    -20.751827     -10.885589     -217.72668    
      3940  -223.20296      90             90             90            -12.058421      0.51189737    -21.61864      -15.06852      -223.20296    
      3960  -219.87558      90             90             90            -13.204591     -1.9748158     -20.571119     -17.067837     -219.87558    
      3980  -224.1062       90             90             90            -12.81705      -7.2899544     -14.82065      -16.340544     -224.1062     
      4000  -230.61377      90             90             90            -12.195731     -13.296219     -9.9930517     -13.297923     -230.61377    
      4020  -232.72717      90             90             90            -11.937086     -13.297163     -12.298863     -10.215232     -232.72717    
      4040  -231.85846      90             90             90            -10.854481     -8.3282288     -16.461326     -7.7738868     -231.85846    
      4060  -225.63096      90             90             90            -8.8350302     -5.7882238     -15.636501     -5.0803661     -225.63096    
      4080  -226.62392      90             90             90            -5.1018343     -6.2254863     -9.9382112      0.85819454    -226.62392    
      4100  -234.17472      90             90             90            -0.85831714    -6.5440675     -6.7882217      10.757338     -234.17472    
      4120  -230.59354      90             90             90             1.4520492     -3.746381      -10.266612      18.36914      -230.59354    
      4140  -226.80981      90             90             90             3.4863366      1.3900886     -12.659289      21.72821      -226.80981    
      4160  -225.36685      90             90             90             5.5327189      3.4073797     -9.7457461      22.936523     -225.36685    
      4180  -227.49671      90             90             90             7.1727235      1.8025412     -4.5555376      24.271167     -227.49671    
      4200  -235.60411      90             90             90             8.2265758     -0.88041224    -0.93174705     26.491887     -235.60411    
      4220  -230.47998      90             90             90             6.8808929     -1.3485926     -2.1796867      24.170958     -230.47998    
      4240  -223.33527      90             90             90             5.6936788      1.7467416     -1.8159817      17.150277     -223.33527    
      4260  -221.95007      90             90             90             6.2067638      3.6744952      5.3731059      9.5726903     -221.95007    
      4280  -224.54913      90             90             90             7.417234       4.3682835      13.917983      3.9654359     -224.54913    
      4300  -227.16078      90             90             90             7.8876448      5.4288627      17.761897      0.47217421    -227.16078    
      4320  -218.13694      90             90             90             6.466249       10.188012      15.425093     -6.2143579     -218.13694    
      4340  -219.92732      90             90             90             6.431055       20.441808      12.425247     -13.57389      -219.92732    
      4360  -227.96316      90             90             90             6.915437       25.682944      11.603024     -16.539658     -227.96316    
      4380  -228.76117      90             90             90             5.5107061      24.238953      10.450977     -18.157812     -228.76117    
      4400  -232.67507      90             90             90             3.4858601      21.726645      8.3343207     -19.603386     -232.67507    
      4420  -233.77452      90             90             90             1.314842       19.676596      3.8826079     -19.614678     -233.77452    
      4440  -237.57862      90             90             90             0.4526004      19.794216     -1.0033032     -17.433112     -237.57862    
      4460  -238.01558      90             90             90            -0.28715562     16.408616     -3.7202585     -13.549824     -238.01558    
      4480  -231.28213      90             90             90            -2.2546748      6.1113167     -4.1581287     -8.7172126     -231.28213    
      4500  -228.14509      90             90             90            -3.8665236     -4.8303193     -2.3168278     -4.4524236     -228.14509    
      4520  -231.86904      90             90             90            -3.3763906     -7.3818966     -3.0273334      0.28005825    -231.86904    
      4540  -240.00843      90             90             90            -0.82016484    -2.2392328     -8.1216553      7.9003936     -240.00843    
      4560  -236.10457      90             90             90             0.36617228    -0.56405796    -10.314809      11.977384     -236.10457    
      4580  -230.76176      90             90             90            -0.068709302   -2.7924956     -6.7477156      9.3340832     -230.76176    
      4600  -230.6568       90             90             90            -1.1473834     -5.8494125     -2.8179227      5.2251848     -230.6568     
      4620  -226.53736      90             90             90            -2.2604729     -7.5054553     -2.1209467      2.8449833     -226.53736    
      4640  -229.52901      90             90             90            -0.73211128    -2.7457895     -2.6150015      3.1644572     -229.52901    
      4660  -226.66071      90             90             90             1.8430669      1.2454648      0.22161671     4.0621191     -226.66071    
      4680  -226.0536       90             90             90             5.5066515      2.3099295      8.5127982      5.6972269     -226.0536     
      4700  -233.64651      90             90             90             10.411645      4.6986764      17.076916      9.4593417     -233.64651    
      4720  -229.90989      90             90             90             14.287348      8.9393239      21.195504      12.727215     -229.90989    
      4740  -233.22788      90             90             90             18.795173      18.789099      22.954662      14.641757     -233.22788    
      4760  -230.92667      90             90             90             20.997616      27.398448      20.897364      14.697037     -230.92667    
      4780  -220.71925      90             90             90             19.527894      27.793817      15.400649      15.389215     -220.71925    
      4800  -219.75872      90             90             90             17.086011      23.001446      10.964769      17.291818     -219.75872    
      4820  -212.99434      90             90             90             13.80299       17.913677      7.4539664      16.041326     -212.99434    
      4840  -211.05841      90             90             90             12.075621      19.094919      4.8616377      12.270308     -211.05841    
      4860  -210.17937      90             90             90             10.966353      23.803112      1.6805949      7.4153512     -210.17937    
      4880  -213.94004      90             90             90             9.9456976      25.516535      0.25434933     4.0662082     -213.94004    
      4900  -225.57674      90             90             90             9.3409991      20.847845      3.4571675      3.717985      -225.57674    
      4920  -222.71296      90             90             90             7.1411162      12.424884      3.728749       5.2697161     -222.71296    
      4940  -229.0003       90             90             90             5.990422       8.0851867     -0.00015825021  9.8862374     -229.0003     
      4960  -237.94214      90             90             90             4.0057257      3.9729715     -3.75672        11.800926     -237.94214    
      4980  -232.32181      90             90             90            -1.4252688     -5.9399615     -7.0008948      8.6650499     -232.32181    
      5000  -227.24669      90             90             90            -7.2653864     -20.120218     -6.8763177      5.2003767     -227.24669    
      5020  -220.13282      90             90             90            -11.557756     -32.9316       -4.7362406      2.994574      -220.13282    
      5040  -225.16481      90             90             90            -11.487277     -35.065673     -2.8601717      3.4640145     -225.16481    
      5060  -235.31125      90             90             90            -8.9157784     -27.310941     -3.055549       3.6191546     -235.31125    
      5080  -233.3111       90             90             90            -7.4783693     -20.215889     -4.7731288      2.5539095     -233.3111     
      5100  -235.29611      90             90             90            -5.5587669     -17.604221     -2.400647       3.3285674     -235.29611    
      5120  -237.7076       90             90             90            -2.9647251     -14.541922      0.41790347     5.2298433     -237.7076     
      5140  -235.83526      90             90             90             0.26640636    -7.0034354     -0.13153953     7.934194      -235.83526    
      5160  -239.83249      90             90             90             4.8682126      4.5186732      1.7867268      8.2992379     -239.83249    
      5180  -245.39516      90             90             90             8.9913209      13.711659      7.2522626      6.0100409     -245.39516    
      5200  -245.902        90             90             90             11.30392       15.952221      11.345505      6.6140336     -245.902      
      5220  -242.54295      90             90             90             12.440105      16.905077      11.05668       9.3585573     -242.54295    
      5240  -238.81122      90             90             90             13.034798      18.012991      8.0889824      13.00242      -238.81122    
      5260  -233.63348      90             90             90             12.44851       16.595158      4.9703702      15.780002     -233.63348    
      5280  -225.7993       90             90             90             10.234411      15.227041      2.4296024      13.046591     -225.7993     
      5300  -229.53649      90             90             90             8.5316083      14.970563      3.0534279      7.5708343     -229.53649    
      5320  -238.44772      90             90             90             7.4228362      12.605271      5.1001076      4.5631299     -238.44772    
      5340  -233.18824      90             90             90             5.1379934      7.0862401      1.7682876      6.5594523     -233.18824    
      5360  -227.19746      90             90             90             3.4687225      6.461198      -7.9299913      11.874961     -227.19746    
      5380  -233.04908      90             90             90             3.8425225      12.924601     -15.748465      14.351431     -233.04908    
      5400  -242.1937       90             90             90             4.6786463      17.166119     -15.046802      11.916622     -242.1937     
      5420  -242.2004       90             90             90             3.3329429      12.497203     -12.349784      9.8514097     -242.2004     
      5440  -233.15236      90             90             90            -1.306531      -0.66102327    -12.759498      9.5009284     -233.15236    
      5460  -230.79178      90             90             90            -7.2803334     -11.74332      -13.00051       2.9028299     -230.79178    
      5480  -228.0715       90             90             90            -13.832668     -16.590846     -15.808498     -9.098659      -228.0715     
      5500  -216.62983      90             90             90            -19.519528     -21.482833     -20.854301     -16.221451     -216.62983    
      5520  -217.01239      90             90             90            -20.37141      -22.592312     -20.124881     -18.397037     -217.01239    
      5540  -229.44102      90             90             90            -16.863096     -18.271646     -13.43681      -18.880833     -229.44102    
      5560  -238.19058      90             90             90            -12.596879     -13.667231     -6.589062      -17.534344     -238.19058    
      5580  -236.81422      90             90             90            -9.3422153     -8.9045723     -3.6189654     -15.503108     -236.81422    
      5600  -239.62167      90             90             90            -5.0905386     -1.6861992      0.6576276     -14.243044     -239.62167    
      5620  -248.07892      90             90             90             0.69412495     7.879451       9.1586928     -14.955769     -248.07892    
      5640  -245.15335      90             90             90             5.8734195      15.251362      14.943615     -12.574718     -245.15335    
      5660  -249.21664      90             90             90             11.993799      20.530736      18.848761     -3.398099      -249.21664    
      5680  -257.12546      90             90             90             17.719541      26.991         22.304882      3.8627399     -257.12546    
      5700  -255.62452      90             90             90             20.479972      33.209364      24.624418      3.6061359     -255.62452    
      5720  -253.13502      90             90             90             20.536489      34.8976        26.590788      0.12107777    -253.13502    
      5740  -245.35953      90             90             90             17.374178      30.47572       23.51084      -1.864027      -245.35953    
      5760  -238.83263      90             90             90             12.98543       25.678279      15.568333     -2.2903223     -238.83263    
      5780  -237.73264      90             90             90             9.794521       23.897569      7.6520759     -2.1660821     -237.73264    
      5800  -242.78993      90             90             90             9.0883537      20.71042       4.0630361      2.4916045     -242.78993    
      5820  -254.15607      90             90             90             10.471906      14.606087      6.4932878      10.316343     -254.15607    
      5840  -254.99361      90             90             90             10.302792      8.0782848      8.0141679      14.815924     -254.99361    
      5860  -250.86398      90             90             90             7.9957604      2.6943685      5.169317       16.123596     -250.86398    
      5880  -253.16566      90             90             90             5.0338271     -0.68978794     0.30592967     15.485339     -253.16566    
      5900  -255.23279      90             90             90             1.2842004     -6.7156388     -4.1841415      14.752382     -255.23279    
      5920  -248.81805      90             90             90            -3.4089887     -17.867728     -6.5989918      14.239754     -248.81805    
      5940  -242.6081       90             90             90            -6.9519968     -23.295789     -10.002527      12.442325     -242.6081     
      5960  -246.86943      90             90             90            -7.3447695     -17.932896     -14.358883      10.25747      -246.86943    
      5980  -247.45061      90             90             90            -5.7836781     -9.3910274     -15.840102      7.8800956     -247.45061    
      6000  -241.48346      90             90             90            -2.6610996     -1.8576235     -11.51976       5.3940846     -241.48346    
      6020  -239.66555      90             90             90             1.9751686      3.552488      -1.792571       4.1655889     -239.66555    
      6040  -244.5584       90             90             90             6.4206032      7.2066212      6.7613438      5.2938447     -244.5584     
      6060  -246.25952      90             90             90             8.5189649      10.558108      9.1807861      5.8180006     -246.25952    
      6080  -238.26919      90             90             90             8.0871374      13.99468       6.7294027      3.5373296     -238.26919    
      6100  -236.39473      90             90             90             8.2717184      16.604231      6.3486186      1.862306      -236.39473    
      6120  -238.4919       90             90             90             9.7455922      16.727939      11.411651      1.0971872     -238.4919     
      6140  -240.79282      90             90             90             11.891789      17.397792      15.27131       3.0062651     -240.79282    
      6160  -244.69856      90             90             90             13.596132      19.14181       13.922176      7.7244115     -244.69856    
      6180  -240.17642      90             90             90             12.726491      18.41687       12.236218      7.5263846     -240.17642    
      6200  -236.59209      90             90             90             10.351181      14.287818      14.282315      2.4834092     -236.59209    
      6220  -233.02457      90             90             90             6.8666881      6.9765657      17.065734     -3.4422348     -233.02457    
      6240  -233.92052      90             90             90             3.8214082      0.27035669     18.06298      -6.8691123     -233.92052    
      6260  -244.37956      90             90             90             2.9909134     -3.3783576      19.223908     -6.8728103     -244.37956    
      6280  -241.40077      90             90             90             2.4241478     -4.2150858      19.163038     -7.6755086     -241.40077    
      6300  -233.80367      90             90             90             3.3786156     -2.7970107      18.640173     -5.7073159     -233.80367    
      6320  -241.42511      90             90             90             7.2625298     -1.7810912      21.840924      1.727757      -241.42511    
      6340  -247.75346      90             90             90             9.8552996     -2.7826079      22.535094      9.813412      -247.75346    
      6360  -241.70981      90             90             90             8.2013508     -4.0694805      14.580694      14.092839     -241.70981    
      6380  -239.95911      90             90             90             4.3863727     -4.0183991      5.0623058      12.115211     -239.95911    
      6400  -248.75329      90             90             90             0.1641527     -6.5191085     -0.75775608     7.7693227     -248.75329    
      6420  -257.35226      90             90             90            -4.5097132     -12.491547     -5.8644488      4.8268563     -257.35226    
      6440  -257.57974      90             90             90            -9.0845202     -16.0371       -13.817394      2.6009343     -257.57974    
      6460  -250.28594      90             90             90            -12.117931     -15.314481     -23.212118      2.1728056     -250.28594    
      6480  -244.68854      90             90             90            -12.129514     -11.201049     -27.471076      2.2835834     -244.68854    
      6500  -249.10947      90             90             90            -9.2868913     -5.3164132     -24.061693      1.5174326     -249.10947    
      6520  -253.12979      90             90             90            -6.978025      -2.7933767     -20.055979      1.9152811     -253.12979    
      6540  -249.47278      90             90             90            -7.1065278     -2.437235      -19.958931      1.0765829     -249.47278    
      6560  -246.74189      90             90             90            -8.0745403      1.8505007     -21.864327     -4.2097947     -246.74189    
      6580  -239.35874      90             90             90            -9.3193182      7.3723842     -23.974433     -11.355906     -239.35874    
      6600  -234.6747       90             90             90            -8.4735126      12.513921     -21.968755     -15.965704     -234.6747     
      6620  -242.80488      90             90             90            -3.4595487      17.875659     -13.606668     -14.647637     -242.80488    
      6640  -244.07611      90             90             90             3.0659497      19.87608      -3.6961318     -6.9820994     -244.07611    
      6660  -239.76912      90             90             90             10.15822       22.777112      3.253735       4.4438139     -239.76912    
      6680  -240.02424      90             90             90             17.174883      27.821168      7.1471494      16.556332     -240.02424    
      6700  -241.06513      90             90             90             21.239517      30.699684      9.4788016      23.540066     -241.06513    
      6720  -236.88779      90             90             90             20.299635      29.613942      9.8066496      21.478314     -236.88779    
      6740  -231.70456      90             90             90             15.949345      21.873189      9.9228054      16.05204      -231.70456    
      6760  -236.46789      90             90             90             12.003427      14.285719      11.645352      10.079211     -236.46789    
      6780  -239.11218      90             90             90             8.9598359      9.7988239      12.158187      4.9224966     -239.11218    
      6800  -239.58752      90             90             90             7.0806797      4.4123085      10.921117      5.9086142     -239.58752    
      6820  -241.746        90             90             90             5.6458507     -2.276334       9.5955169      9.6183691     -241.746      
      6840  -238.35164      90             90             90             2.6336809     -12.31397       10.876781      9.3382323     -238.35164    
      6860  -241.93841      90             90             90            -0.80391101    -19.604356      11.504048      5.6885747     -241.93841    
      6880  -240.71575      90             90             90            -5.7173695     -24.452493      6.2136626      1.0867215     -240.71575    
      6900  -235.74984      90             90             90            -10.723999     -29.759708      0.40550738    -2.8177953     -235.74984    
      6920  -241.35913      90             90             90            -12.408618     -29.570826     -2.8022156     -4.8528125     -241.35913    
      6940  -237.74735      90             90             90            -12.166622     -27.457312     -5.235481      -3.8070726     -237.74735    
      6960  -233.97594      90             90             90            -8.7321731     -21.53971      -5.8372832      1.1804742     -233.97594    
      6980  -240.83012      90             90             90            -1.6584758     -11.026337     -3.201706       9.2526153     -240.83012    
      7000  -245.99388      90             90             90             5.252883      -0.88819667     2.0106881      14.636158     -245.99388    
      7020  -247.7461       90             90             90             9.5337208      9.2952727      6.1651366      13.140753     -247.7461     
      7040  -242.72057      90             90             90             10.111939      11.611704      10.071101      8.6530106     -242.72057    
      7060  -243.9071       90             90             90             9.3378029      10.478469      14.271005      3.2639341     -243.9071     
      7080  -248.04569      90             90             90             8.2282598      13.647995      13.433923     -2.3971385     -248.04569    
      7100  -247.40256      90             90             90             7.1263883      16.542903      9.7564479     -4.9201861     -247.40256    
      7120  -249.72123      90             90             90             7.583215       17.771686      9.0560167     -4.0780572     -249.72123    
      7140  -244.53454      90             90             90             8.2421106      16.249967      9.8905309     -1.4141657     -244.53454    
      7160  -240.95145      90             90             90             9.6790498      17.286906      8.826368       2.923875      -240.95145    
      7180  -242.67137      90             90             90             11.630265      20.099376      7.4920433      7.2993742     -242.67137    
      7200  -240.78609      90             90             90             12.214796      19.920919      7.7053784      9.0180892     -240.78609    
      7220  -243.61499      90             90             90             12.046316      18.122647      9.4344827      8.5818183     -243.61499    
      7240  -241.13669      90             90             90             10.143595      9.8030111      12.995603      7.6321721     -241.13669    
      7260  -241.72447      90             90             90             7.977565       1.5747297      14.773851      7.5841147     -241.72447    
      7280  -248.67718      90             90             90             6.5601611     -0.9282416      12.927029      7.681696      -248.67718    
      7300  -243.90254      90             90             90             4.1639928     -2.7407433      9.0292584      6.2034632     -243.90254    
      7320  -242.18906      90             90             90             2.602639      -4.4905198      6.6233988      5.675038      -242.18906    
      7340  -247.67228      90             90             90             2.094759      -8.141769       8.5694848      5.8565611     -247.67228    
      7360  -252.5418       90             90             90             1.4862792     -7.7217706      7.5832973      4.597311      -252.5418     
      7380  -252.34312      90             90             90             0.26034679    -2.0774927      0.87257778     1.9859553     -252.34312    
      7400  -242.94698      90             90             90            -1.8304348      0.82868307    -4.8107233     -1.5092642     -242.94698    
      7420  -242.73022      90             90             90            -2.2127304      0.23259321    -6.7114176     -0.15936692    -242.73022    
      7440  -243.51922      90             90             90            -1.7111865     -3.2581982     -5.0483558      3.1729945     -243.51922    
      7460  -236.07416      90             90             90            -1.7900408     -4.3933937     -2.2163578      1.239629      -236.07416    
      7480  -236.0688       90             90             90            -1.2472243     -1.2523086     -2.0833106     -0.40605377    -236.0688     
      7500  -231.8421       90             90             90            -1.9498817      2.2632294     -7.0556152     -1.0572592     -231.8421     
      7520  -224.72868      90             90             90            -3.2077789      4.5590973     -12.33794      -1.8444941     -224.72868    
      7540  -221.89388      90             90             90            -2.3825692      3.0285606     -11.358466      1.1821975     -221.89388    
      7560  -224.36321      90             90             90             1.0846774      0.62484713    -4.3849919      7.0141771     -224.36321    
      7580  -233.96932      90             90             90             6.1274537      0.87179144     4.2819825      13.228587     -233.96932    
      7600  -235.31004      90             90             90             9.0208634      1.6842751      7.6974185      17.680897     -235.31004    
      7620  -234.06212      90             90             90             9.4815407      0.88072433     7.7401412      19.823756     -234.06212    
      7640  -244.0144       90             90             90             9.561811      -2.550576       9.1435872      22.092422     -244.0144     
      7660  -244.77247      90             90             90             7.5535769     -7.4746973      8.9832798      21.152148     -244.77247    
      7680  -236.3414       90             90             90             4.3284225     -10.198895      9.336225       13.847938     -236.3414     
      7700  -232.41039      90             90             90             2.6471903     -6.4845308      9.4723245      4.9537773     -232.41039    
      7720  -232.99442      90             90             90             3.0398319      0.25041648     7.4812369      1.3878424     -232.99442    
      7740  -233.46371      90             90             90             4.6908552      3.9427784      6.1481739      3.9816134     -233.46371    
      7760  -229.93491      90             90             90             6.1553908      2.995405       5.6135667      9.8572007     -229.93491    
      7780  -237.11659      90             90             90             7.795737       0.53747644     6.603089       16.246645     -237.11659    
      7800  -242.88413      90             90             90             6.7500449      0.4034899      3.1718742      16.674771     -242.88413    
      7820  -233.79895      90             90             90             1.5097633     -1.1764803     -6.1509221      11.856692     -233.79895    
      7840  -231.47908      90             90             90            -3.4621483     -4.8187959     -14.506499      8.9388505     -231.47908    
      7860  -234.2941       90             90             90            -5.3255621     -6.7767227     -18.548495      9.3485313     -234.2941     
      7880  -240.919        90             90             90            -3.7835207     -8.131923      -14.471461      11.252822     -240.919      
      7900  -240.48812      90             90             90            -0.70108609    -5.916136      -9.1763007      12.989178     -240.48812    
      7920  -233.7287       90             90             90             1.534719      -4.6692856     -5.2864507      14.559893     -233.7287     
      7940  -238.78619      90             90             90             3.3951635     -7.3881592      2.4544233      15.119226     -238.78619    
      7960  -235.93562      90             90             90             2.1093927     -12.095187      6.5768706      11.846495     -235.93562    
      7980  -233.18828      90             90             90            -0.56501534    -15.813524      6.8292086      7.2892691     -233.18828    
      8000  -239.46258      90             90             90            -2.6961977     -17.100869      6.5281437      2.4841325     -239.46258    
      8020  -236.3282       90             90             90            -5.6179416     -18.381822      5.4908745     -3.9628773     -236.3282     
      8040  -240.13031      90             90             90            -7.0800424     -18.069639      5.5215451     -8.6920332     -240.13031    
      8060  -242.74894      90             90             90            -6.7982878     -12.924938     -0.78123492    -6.6886907     -242.74894    
      8080  -238.74772      90             90             90            -5.0134069     -5.3971751     -9.1318107     -0.51123493    -238.74772    
      8100  -241.64739      90             90             90            -0.87290102     2.6618136     -7.6362518      2.3557351     -241.64739    
      8120  -244.65094      90             90             90             2.8180392      9.275608      -0.48708709    -0.33440325    -244.65094    
      8140  -248.1801       90             90             90             4.9318697      13.087256      6.6283822     -4.9200295     -248.1801     
      8160  -244.46089      90             90             90             4.5748901      12.119674      11.074349     -9.4693523     -244.46089    
      8180  -238.01885      90             90             90             3.0952867      10.323936      10.620352     -11.658428     -238.01885    
      8200  -244.28218      90             90             90             3.3293545      11.697116      4.970105      -6.6791574     -244.28218    
      8220  -251.08941      90             90             90             4.4310055      12.505194      0.13677136     0.65105098    -251.08941    
      8240  -257.68362      90             90             90             6.0600569      13.886077      1.8524738      2.4416196     -257.68362    
      8260  -262.06865      90             90             90             7.2125175      14.19174       5.2114501      2.2343623     -262.06865    
      8280  -265.94113      90             90             90             7.3673288      13.741902      4.6760637      3.6840205     -265.94113    
      8300  -270.92719      90             90             90             6.9363769      15.372082     -1.0232503      6.4602991     -270.92719    
      8320  -268.24376      90             90             90             5.2055214      12.548262     -5.3574932      8.4257958     -268.24376    
      8340  -267.14372      90             90             90             3.3384252      4.8110705     -3.0937343      8.2979395     -267.14372    
      8360  -268.7821       90             90             90             2.4006101     -3.7529627      1.0671235      9.8876694     -268.7821     
      8380  -264.76789      90             90             90             2.0839928     -9.6324663      4.3040233      11.580421     -264.76789    
      8400  -255.57878      90             90             90             2.5338453     -7.103107       4.1831754      10.521468     -255.57878    
      8420  -251.59337      90             90             90             4.6814698      0.96134362     3.741882       9.3411838     -251.59337    
      8440  -249.35267      90             90             90             7.359781       7.9901408      5.8779313      8.211271      -249.35267    
      8460  -241.59368      90             90             90             8.5810047      11.445607      6.8123686      7.4850388     -241.59368    
      8480  -245.27698      90             90             90             9.7526076      11.527709      10.427999      7.3021154     -245.27698    
      8500  -247.80314      90             90             90             9.3376545      9.646733       10.749488      7.6167426     -247.80314    
      8520  -243.37854      90             90             90             7.5428983      8.0667838      4.751661       9.8102501     -243.37854    
      8540  -244.49346      90             90             90             7.043386       6.3168351      4.2699798      10.543343     -244.49346    
      8560  -236.93342      90             90             90             6.6255382      5.2345225      6.5754282      8.0666639     -236.93342    
      8580  -242.54514      90             90             90             8.5766948      7.6810484      11.675227      6.3738087     -242.54514    
      8600  -250.87835      90             90             90             10.630538      6.834671       17.275558      7.7813858     -250.87835    
      8620  -235.90158      90             90             90             8.5915129      0.41151795     14.442076      10.920945     -235.90158    
      8640  -230.19812      90             90             90             6.1058652     -4.7272238      12.522735      10.522085     -230.19812    
      8660  -226.94426      90             90             90             3.139868      -9.0229096      13.889409      4.5531043     -226.94426    
      8680  -223.08668      90             90             90             0.71716528    -10.880277      13.929043     -0.89727027    -223.08668    
      8700  -232.56916      90             90             90             1.1895818     -8.4332072      14.379108     -2.3771557     -232.56916    
      8720  -236.74261      90             90             90             1.6617446     -6.2910945      13.363883     -2.0875546     -236.74261    
      8740  -238.36516      90             90             90             2.1180027     -3.7812636      10.537357     -0.40208511    -238.36516    
      8760  -240.09167      90             90             90             2.7270303      1.0401193      6.3469133      0.79405835    -240.09167    
      8780  -240.56515      90             90             90             3.3356517      6.9448278      2.9067098      0.15541751    -240.56515    
      8800  -242.49182      90             90             90             4.2107486      11.801062      2.4174898     -1.5863063     -242.49182    
      8820  -236.87766      90             90             90             4.234185       12.312394      4.8584535     -4.4682925     -236.87766    
      8840  -238.67977      90             90             90             5.0509483      9.4692755      11.284898     -5.6013283     -238.67977    
      8860  -243.3195       90             90             90             6.0033644      7.130919       15.470345     -4.5911706     -243.3195     
      8880  -240.55618      90             90             90             5.7104582      6.801987       13.745469     -3.4160816     -240.55618    
      8900  -243.70117      90             90             90             5.3917064      8.169822       8.8127312     -0.80743397    -243.70117    
      8920  -242.86579      90             90             90             3.2819583      6.5974731      1.5838094      1.6645925     -242.86579    
      8940  -239.20129      90             90             90            -0.50929343    -0.27083519    -3.0453831      1.788338      -239.20129    
      8960  -242.0527       90             90             90            -3.9741463     -7.2157123     -4.5511922     -0.15553451    -242.0527     
      8980  -240.47867      90             90             90            -7.0074544     -9.0084339     -8.6146638     -3.3992656     -240.47867    
      9000  -244.61728      90             90             90            -7.0517871     -3.7806716     -15.035563     -2.3391271     -244.61728    
      9020  -253.46614      90             90             90            -4.0793426      1.799834      -18.405518      4.3676566     -253.46614    
      9040  -246.32113      90             90             90            -1.4557079      1.6279506     -15.660714      9.6656396     -246.32113    
      9060  -240.65087      90             90             90             0.90516073     1.2711244     -8.2063985      9.6507562     -240.65087    
      9080  -238.65414      90             90             90             3.2215846      3.0399827      1.5744052      5.0503659     -238.65414    
      9100  -232.49037      90             90             90             5.448307       5.3080189      7.8259396      3.2109626     -232.49037    
      9120  -235.08375      90             90             90             8.4086705      8.3081034      9.185082       7.7328259     -235.08375    
      9140  -237.28584      90             90             90             9.8281196      9.9936307      10.439433      9.0512951     -237.28584    
      9160  -237.48154      90             90             90             9.1177666      10.585904      10.608807      6.1585896     -237.48154    
      9180  -240.82598      90             90             90             7.7603753      7.3367113      10.381589      5.5628258     -240.82598    
      9200  -237.71265      90             90             90             5.5673665      1.5746531      9.5396588      5.5877877     -237.71265    
      9220  -228.64178      90             90             90             3.1102836     -0.50515143     4.9347057      4.9012965     -228.64178    
      9240  -228.2107       90             90             90             2.1983863     -0.22797475     1.4494688      5.3736648     -228.2107     
      9260  -235.9791       90             90             90             2.5379296      2.1944665     -1.2171757      6.6364981     -235.9791     
      9280  -228.47883      90             90             90             1.5498982      6.4239131     -6.7804418      5.0062233     -228.47883    
      9300  -218.40848      90             90             90             1.2194553      12.822618     -11.252301      2.0880493     -218.40848    
      9320  -223.63194      90             90             90             3.3727838      20.530319     -13.557917      3.1459493     -223.63194    
      9340  -228.58962      90             90             90             5.0409127      23.977279     -13.828527      4.9739859     -228.58962    
      9360  -231.9241       90             90             90             4.8747471      22.660671     -12.783679      4.7472489     -231.9241     
      9380  -232.35392      90             90             90             2.4383912      15.756264     -12.442403      4.001313      -232.35392    
      9400  -235.61748      90             90             90            -1.0821313      5.8266487     -14.59998       5.5269375     -235.61748    
      9420  -241.70106      90             90             90            -5.2149905     -3.2233985     -20.819766      8.3981933     -241.70106    
      9440  -240.37179      90             90             90            -10.811966     -14.942647     -23.343265      5.8500145     -240.37179    
      9460  -237.77357      90             90             90            -15.911615     -26.903071     -18.630481     -2.2012942     -237.77357    
      9480  -234.10002      90             90             90            -18.499961     -32.618229     -12.628313     -10.253342     -234.10002    
      9500  -234.48856      90             90             90            -16.786231     -31.001526     -7.3872016     -11.969964     -234.48856    
      9520  -234.41015      90             90             90            -12.032465     -27.266827     -3.5213161     -5.3092532     -234.41015    
      9540  -230.92812      90             90             90            -6.4646039     -23.798383      2.7334025      1.6711684     -230.92812    
      9560  -238.31595      90             90             90            -0.18077598    -17.309237      13.287969      3.4789406     -238.31595    
      9580  -238.62991      90             90             90             3.7540151     -10.373466      20.915219      0.72029272    -238.62991    
      9600  -236.40799      90             90             90             5.7527928     -4.2068975      22.230121     -0.76484534    -236.40799    
      9620  -243.99395      90             90             90             7.2319706     -2.1740145      19.77922       4.0907067     -243.99395    
      9640  -242.30717      90             90             90             6.2452821     -7.3017138      17.128987      8.908573      -242.30717    
      9660  -242.92168      90             90             90             5.496762      -10.31561       18.531471      8.2744251     -242.92168    
      9680  -245.37281      90             90             90             6.0927873     -10.416196      24.711195      3.9833635     -245.37281    
      9700  -240.64103      90             90             90             6.7269891     -7.708805       28.56565      -0.67587783    -240.64103    
      9720  -243.61868      90             90             90             7.9592034      3.1000709      23.730765     -2.9532259     -243.61868    
      9740  -241.64569      90             90             90             7.522048       12.398181      14.658343     -4.4903796     -241.64569    
      9760  -232.74491      90             90             90             5.775197       13.844255      9.3669652     -5.8856288     -232.74491    
      9780  -229.83362      90             90             90             5.909287       13.251488      8.9790124     -4.5026393     -229.83362    
      9800  -237.3069       90             90             90             9.3899654      15.342061      10.09152       2.7363151     -237.3069     
      9820  -248.45494      90             90             90             14.286723      18.936602      8.6454932      15.278075     -248.45494    
      9840  -245.27623      90             90             90             15.159836      18.85367       3.2464598      23.379378     -245.27623    
      9860  -234.58141      90             90             90             13.702161      18.956877     -2.7786552      24.928262     -234.58141    
      9880  -233.60234      90             90             90             12.74516       25.928616     -7.9878988      20.294764     -233.60234    
      9900  -237.27673      90             90             90             11.748742      33.256022     -11.446906      13.437109     -237.27673    
[...]
     97940  -245.88158      90             90             90             6.0467489      1.9153311      3.1967727      13.028143     -245.88158    
     97960  -250.86577      90             90             90             8.8349667      3.5364613      11.95035       11.018089     -250.86577    
     97980  -251.87792      90             90             90             12.558303      7.6842852      22.189519      7.8011047     -251.87792    
     98000  -241.56345      90             90             90             12.27524       12.457896      24.602205     -0.23438159    -241.56345    
     98020  -260.28982      90             90             90             11.513869      13.924753      18.175292      2.4415631     -260.28982    
     98040  -250.73035      90             90             90             6.16466        2.4584689      5.9466594      10.088852     -250.73035    
     98060  -239.15062      90             90             90             1.9813972     -5.7293332      5.4704901      6.2030348     -239.15062    
     98080  -236.34541      90             90             90            -0.21579654    -9.457126       9.9309666     -1.1212303     -236.34541    
     98100  -218.64347      90             90             90            -5.3697607     -16.731351      9.7119265     -9.0898572     -218.64347    
     98120  -227.33035      90             90             90            -8.679706      -21.634737      7.4499141     -11.854295     -227.33035    
     98140  -225.40198      90             90             90            -12.161483     -30.076424      2.0799842     -8.4880098     -225.40198    
     98160  -218.05196      90             90             90            -12.761076     -38.357624      5.6745545     -5.6001575     -218.05196    
     98180  -222.06722      90             90             90            -8.5642119     -35.511356      8.3932004      1.4255197     -222.06722    
     98200  -223.30719      90             90             90            -2.9587319     -23.133709      5.89348        8.364033      -223.30719    
     98220  -237.13889      90             90             90             1.0765514     -13.729127      9.8658016      7.09298       -237.13889    
     98240  -220.49518      90             90             90             0.51328278    -15.362458      7.7309658      9.171341      -220.49518    
     98260  -219.87254      90             90             90             2.1675049     -14.533197      7.2982804      13.737431     -219.87254    
     98280  -241.32717      90             90             90             6.7684105     -6.6234837      11.006151      15.922564     -241.32717    
     98300  -231.25049      90             90             90             6.8982571      0.34486631     5.8634419      14.486463     -231.25049    
     98320  -228.17501      90             90             90             6.3709509      11.704607     -0.70529886     8.1135443     -228.17501    
     98340  -235.68849      90             90             90             7.01749        22.991037     -9.8337728      7.8952056     -235.68849    
     98360  -240.96064      90             90             90             8.9612362      23.324944     -12.723088      16.281853     -240.96064    
     98380  -248.59335      90             90             90             14.621194      19.415407     -1.858464       26.306638     -248.59335    
     98400  -242.75752      90             90             90             19.234309      20.412894      7.6488952      29.641138     -242.75752    
     98420  -238.40304      90             90             90             20.701056      27.320832      10.876374      23.905964     -238.40304    
     98440  -256.21303      90             90             90             20.754833      32.115736      8.4569045      21.691859     -256.21303    
     98460  -258.66813      90             90             90             16.797126      24.534867      7.1348777      18.721632     -258.66813    
     98480  -242.49757      90             90             90             8.816241       9.6512531      9.2990767      7.4983932     -242.49757    
     98500  -257.73243      90             90             90             4.1642496      1.1588877      6.0919306      5.2419305     -257.73243    
     98520  -261.09089      90             90             90            -0.45925357    -5.9932695     -3.1192809      7.7347897     -261.09089    
     98540  -250.69406      90             90             90            -6.2501725     -10.405723     -13.210896      4.8661015     -250.69406    
     98560  -256.94958      90             90             90            -9.2836867     -11.373728     -17.121662      0.64433039    -256.94958    
     98580  -244.24294      90             90             90            -14.746968     -19.036162     -17.130769     -8.073972      -244.24294    
     98600  -251.37509      90             90             90            -18.898715     -24.875426     -16.311594     -15.509126     -251.37509    
     98620  -265.93944      90             90             90            -21.913053     -30.250683     -16.120037     -19.368439     -265.93944    
     98640  -252.73681      90             90             90            -25.338377     -34.479615     -18.148156     -23.387361     -252.73681    
     98660  -252.83094      90             90             90            -22.984181     -30.236752     -14.519356     -24.196433     -252.83094    
     98680  -244.03418      90             90             90            -18.189833     -25.547608     -5.4320917     -23.589799     -244.03418    
     98700  -239.78434      90             90             90            -11.354704     -13.619302      1.5748479     -22.019656     -239.78434    
     98720  -242.40596      90             90             90            -4.1733011      1.9440038      2.8583088     -17.322216     -242.40596    
     98740  -237.13309      90             90             90             1.317731       11.950293     -1.0692011     -6.9278992     -237.13309    
     98760  -245.89313      90             90             90             7.4311399      19.414961     -1.7966341      4.6750926     -245.89313    
     98780  -240.41143      90             90             90             9.675115       19.861353      0.59708393     8.5669077     -240.41143    
     98800  -234.55174      90             90             90             10.701575      21.262743      1.6697448      9.172237      -234.55174    
     98820  -234.16374      90             90             90             12.752925      23.58847       4.6042199      10.066085     -234.16374    
     98840  -222.50207      90             90             90             16.161097      27.777081      7.0384478      13.667761     -222.50207    
     98860  -226.94399      90             90             90             22.708706      38.51286       9.8482017      19.765057     -226.94399    
     98880  -216.9534       90             90             90             25.929253      38.106491      16.021609      23.65966      -216.9534     
     98900  -211.27028      90             90             90             25.320078      31.701255      18.043077      26.215903     -211.27028    
     98920  -236.21395      90             90             90             23.766773      30.342766      16.147902      24.809651     -236.21395    
     98940  -232.68254      90             90             90             16.524204      25.15597       9.3734959      15.043147     -232.68254    
     98960  -219.26764      90             90             90             8.2417374      21.645638     -0.7898287      3.8694028     -219.26764    
     98980  -230.63297      90             90             90             4.3313453      15.12898       0.016102179   -2.1510463     -230.63297    
     99000  -238.35294      90             90             90             0.50122936     1.2683462      2.835272      -2.5999302     -238.35294    
     99020  -240.02838      90             90             90            -2.5227994     -5.8083231     -3.1198656      1.3597905     -240.02838    
     99040  -235.03008      90             90             90            -4.7540514     -5.9350386     -11.348306      3.0211905     -235.03008    
     99060  -225.27301      90             90             90            -7.3454684     -8.3448052     -12.923267     -0.76833282    -225.27301    
     99080  -241.97418      90             90             90            -8.020005      -13.310274     -4.8993022     -5.8504387     -241.97418    
     99100  -251.55307      90             90             90            -11.643958     -18.230409     -4.8794253     -11.822039     -251.55307    
     99120  -234.66474      90             90             90            -18.371483     -19.759403     -16.485683     -18.869362     -234.66474    
     99140  -241.41976      90             90             90            -18.952999     -16.553211     -21.273901     -19.031883     -241.41976    
     99160  -257.66414      90             90             90            -13.517609     -13.441615     -17.581571     -9.5296397     -257.66414    
     99180  -253.67662      90             90             90            -8.4103365     -10.967934     -11.582339     -2.680736      -253.67662    
     99200  -245.31606      90             90             90            -5.4335172     -8.4912484     -7.7488233     -0.060479918   -245.31606    
     99220  -248.51164      90             90             90            -3.2222104     -2.4488522     -9.5901608      2.3723818     -248.51164    
     99240  -248.81891      90             90             90            -2.0932374      6.2415349     -11.56699      -0.95425675    -248.81891    
     99260  -236.13623      90             90             90            -0.30909535     6.3752073     -6.3888116     -0.91368174    -236.13623    
     99280  -239.25083      90             90             90             3.8792641      2.7263189      4.6182856      4.2931877     -239.25083    
     99300  -237.47408      90             90             90             6.2515074      0.62662424     11.916422      6.2114763     -237.47408    
     99320  -240.77824      90             90             90             7.8278273      5.5405872      11.856545      6.0863496     -240.77824    
     99340  -240.09311      90             90             90             9.0268613      16.76383       8.0942899      2.2224637     -240.09311    
     99360  -217.69113      90             90             90             11.07272       19.36974       12.513162      1.3352587     -217.69113    
     99380  -231.41323      90             90             90             17.901493      19.473273      29.103189      5.1280177     -231.41323    
     99400  -238.64174      90             90             90             20.167473      20.945587      38.881246      0.67558618    -238.64174    
     99420  -227.4573       90             90             90             16.073035      19.867724      31.738465     -3.3870828     -227.4573     
     99440  -237.57204      90             90             90             13.000287      20.579548      20.034688     -1.6133752     -237.57204    
     99460  -233.95245      90             90             90             8.5233565      13.651851      10.509984      1.4082339     -233.95245    
     99480  -224.29439      90             90             90             4.0691921      0.65656986     4.791219       6.7597873     -224.29439    
     99500  -222.55112      90             90             90             0.61385693    -6.9044654      0.82802457     7.9180116     -222.55112    
     99520  -231.66185      90             90             90            -2.0366128     -7.4460048     -3.3729913      4.7091578     -231.66185    
     99540  -235.81939      90             90             90            -4.9666188     -0.34066826    -10.605518     -3.9536699     -235.81939    
     99560  -230.84848      90             90             90            -7.878238       1.6946362     -15.352651     -9.9766993     -230.84848    
     99580  -234.84089      90             90             90            -8.2791353     -12.417234     -9.0511709     -3.3690014     -234.84089    
     99600  -226.42943      90             90             90            -10.945733     -29.709073     -4.89735        1.7692231     -226.42943    
     99620  -234.03336      90             90             90            -10.971592     -29.725559     -5.9330765      2.7438587     -234.03336    
     99640  -240.3375       90             90             90            -8.8144088     -20.041329     -8.5354348      2.1335371     -240.3375     
     99660  -231.66128      90             90             90            -8.0012736     -19.472751     -9.3344853      4.8034161     -231.66128    
     99680  -248.85502      90             90             90            -4.4169362     -27.638905     -0.48653235     14.874629     -248.85502    
     99700  -242.44883      90             90             90            -4.6781982     -33.781734      2.6598385      17.087301     -242.44883    
     99720  -234.40724      90             90             90            -5.5435474     -28.938044      0.92125091     11.386151     -234.40724    
     99740  -249.52715      90             90             90            -2.7840455     -16.057421      1.830291       5.8749934     -249.52715    
     99760  -251.92807      90             90             90            -2.8030006     -4.9714914     -7.5402732      4.1027627     -251.92807    
     99780  -250.36921      90             90             90            -2.5749852     -1.8388563     -16.449351      10.563251     -250.36921    
     99800  -242.0079       90             90             90            -1.6132726     -6.3668956     -15.071674      16.598752     -242.0079     
     99820  -243.43017      90             90             90             1.4219177     -1.4685127     -9.5242992      15.258565     -243.43017    
     99840  -246.78431      90             90             90             4.6587523      12.33602      -4.0925237      5.7327604     -246.78431    
     99860  -245.8085       90             90             90             6.4694837      22.312692     -2.3039341     -0.60030717    -245.8085     
     99880  -251.38356      90             90             90             7.7762562      22.752209     -2.3491305      2.9256907     -251.38356    
     99900  -236.36614      90             90             90             6.5933672      15.486215      0.54311575     3.750771      -236.36614    
     99920  -237.98185      90             90             90             8.2761457      17.874491      8.1975481     -1.243602      -237.98185    
     99940  -236.80752      90             90             90             9.6088308      25.581286      13.703937     -10.458731     -236.80752    
     99960  -225.34006      90             90             90             8.3345309      25.178634      12.859272     -13.034313     -225.34006    
     99980  -244.89712      90             90             90             7.7852773      21.453467      3.2693555     -1.3669901     -244.89712    
    100000  -243.64709      90             90             90             3.0206886      12.023963     -8.9454101      5.9835133     -243.64709    
    100020  -238.67028      90             90             90            -1.76721        9.8362202     -13.467644     -1.6702062     -238.67028    
    100040  -249.81271      90             90             90            -3.2909116      19.186985     -13.027672     -16.032048     -249.81271    
    100060  -240.29926      90             90             90            -6.3681727      20.828741     -15.249661     -24.683597     -240.29926    
    100080  -235.19439      90             90             90            -7.8377532      17.294584     -20.201606     -20.606238     -235.19439    
    100100  -237.3087       90             90             90            -6.2568529      7.5355637     -16.499633     -9.8064899     -237.3087     
    100120  -238.60476      90             90             90            -2.2039725      2.2694237     -6.6521036     -2.2292375     -238.60476    
    100140  -236.65449      90             90             90             1.6071363      10.87178      -4.4207196     -1.629651      -236.65449    
    100160  -238.04337      90             90             90             2.724249       12.543684     -3.2194746     -1.1514621     -238.04337    
    100180  -242.56973      90             90             90             0.93174413     7.1474645     -4.4715668      0.11933476    -242.56973    
    100200  -232.95028      90             90             90            -3.7078982     -4.5425653     -5.882648      -0.69848122    -232.95028    
    100220  -232.24295      90             90             90            -5.2419223     -17.971732      0.74698385     1.4989814     -232.24295    
    100240  -236.88984      90             90             90            -3.611999      -17.182043      2.0594706      4.2865752     -236.88984    
    100260  -233.54089      90             90             90            -1.1609026     -10.309123      0.3213903      6.505025      -233.54089    
    100280  -236.28592      90             90             90             1.5727786     -3.7948553     -1.1288691      9.6420602     -236.28592    
    100300  -244.14829      90             90             90             3.318522      -3.1238276      1.2718261      11.807568     -244.14829    
    100320  -243.77748      90             90             90             4.4618658     -9.5714564      9.4446436      13.51241      -243.77748    
    100340  -241.7371       90             90             90             6.0029151     -6.4611354      12.558126      11.911755     -241.7371     
    100360  -240.92834      90             90             90             6.5097335     -1.3194936      13.681922      7.1667719     -240.92834    
    100380  -230.93444      90             90             90             3.9540562     -1.5400078      10.859         2.5431765     -230.93444    
    100400  -240.94747      90             90             90             3.914232      -0.48805994     7.7310183      4.4997376     -240.94747    
    100420  -242.48006      90             90             90             4.9338153     -2.1595696      8.8575823      8.1034334     -242.48006    
    100440  -223.57258      90             90             90             4.6951284      0.036608619    7.5307988      6.5179779     -223.57258    
    100459  -238.21006      90             90             90             6.7661916      3.3670322      7.4670645      9.4644779     -238.21006    
Loop time of 44.5503 on 1 procs for 100000 steps with 378 atoms

Performance: 193.938 ns/day, 0.124 hours/ns, 2244.655 timesteps/s, 848.480 katom-step/s
36.3% CPU use with 1 MPI tasks x no OpenMP threads

MPI task timing breakdown:
Section |  min time  |  avg time  |  max time  |%varavg| %total
---------------------------------------------------------------
Pair    | 16.243     | 16.243     | 16.243     |   0.0 | 36.46
Bond    | 17.165     | 17.165     | 17.165     |   0.0 | 38.53
Neigh   | 1.707      | 1.707      | 1.707      |   0.0 |  3.83
Comm    | 1.3081     | 1.3081     | 1.3081     |   0.0 |  2.94
Output  | 3.9694     | 3.9694     | 3.9694     |   0.0 |  8.91
Modify  | 3.2471     | 3.2471     | 3.2471     |   0.0 |  7.29
Other   |            | 0.9098     |            |       |  2.04

Nlocal:            378 ave         378 max         378 min
Histogram: 1 0 0 0 0 0 0 0 0 0
Nghost:            241 ave         241 max         241 min
Histogram: 1 0 0 0 0 0 0 0 0 0
Neighs:           4471 ave        4471 max        4471 min
Histogram: 1 0 0 0 0 0 0 0 0 0

Total # of neighbors = 4471
Ave neighs/atom = 11.828042
Ave special neighs/atom = 7.1428571
Neighbor list builds = 1271
Dangerous builds = 0
Total wall time: 0:01:08
