ITEM: TIMESTEP
0
ITEM: NUMBER OF ATOMS
5
ITEM: BOX BOUNDS pp pp pp
0.0000000000000000e+00 1.5500000000000000e+01
0.0000000000000000e+00 1.5500000000000000e+01
0.0000000000000000e+00 1.5500000000000000e+01
ITEM: ATOMS id type xs ys zs
3 1 0.154504 0.327284 0.331617
4 2 0.224135 0.310798 0.320952
5 3 0.193856 0.363317 0.283028
2 1 0.858868 0.143518 0.169259
1 1 0.801235 0.104788 0.182513
ITEM: TIMESTEP
38
ITEM: NUMBER OF ATOMS
5
ITEM: BOX BOUNDS pp pp pp
0.0000000000000000e+00 1.5500000000000000e+01
0.0000000000000000e+00 1.5500000000000000e+01
0.0000000000000000e+00 1.5500000000000000e+01
ITEM: ATOMS id type xs ys zs
3 1 0.152501 0.325509 0.330105
4 2 0.222575 0.30974 0.320871
5 3 0.19199 0.362768 0.282182
2 1 0.86249 0.145668 0.171229
1 1 0.803042 0.10602 0.182983
ITEM: TIMESTEP
100
ITEM: NUMBER OF ATOMS
5
ITEM: BOX BOUNDS pp pp pp
0.0000000000000000e+00 1.5500000000000000e+01
0.0000000000000000e+00 1.5500000000000000e+01
0.0000000000000000e+00 1.5500000000000000e+01
ITEM: ATOMS id type xs ys zs
3 2 0.162783 0.304149 0.314145
4 2 0.231745 0.320983 0.32509
5 3 0.190948 0.369653 0.292962
2 1 0.861692 0.154284 0.167254
1 1 0.82545 0.0958621 0.19084
ITEM: TIMESTEP
200
ITEM: NUMBER OF ATOMS
5
ITEM: BOX BOUNDS pp pp pp
0.0000000000000000e+00 1.5500000000000000e+01
0.0000000000000000e+00 1.5500000000000000e+01
0.0000000000000000e+00 1.5500000000000000e+01
ITEM: ATOMS id type xs ys zs
3 2 0.202214 0.296823 0.283865
4 2 0.241027 0.331946 0.333886
5 3 0.176108 0.361394 0.311319
2 2 0.853615 0.154549 0.166588
1 2 0.873279 0.0923252 0.198837
ITEM: TIMESTEP
300
ITEM: NUMBER OF ATOMS
5
ITEM: BOX BOUNDS pp pp pp
0.0000000000000000e+00 1.5500000000000000e+01
0.0000000000000000e+00 1.5500000000000000e+01
0.0000000000000000e+00 1.5500000000000000e+01
ITEM: ATOMS id type xs ys zs
3 2 0.236276 0.330591 0.269371
4 2 0.245766 0.34375 0.341376
5 3 0.182793 0.3132 0.311562
2 2 0.852289 0.130388 0.178594
1 2 0.920494 0.111336 0.19604
ITEM: TIMESTEP
400
ITEM: NUMBER OF ATOMS
5
ITEM: BOX BOUNDS pp pp pp
0.0000000000000000e+00 1.5500000000000000e+01
0.0000000000000000e+00 1.5500000000000000e+01
0.0000000000000000e+00 1.5500000000000000e+01
ITEM: ATOMS id type xs ys zs
3 2 0.240136 0.358526 0.274288
4 2 0.225962 0.336182 0.341891
5 3 0.255286 0.289809 0.297435
2 2 0.890283 0.0924018 0.202172
1 2 0.939198 0.142853 0.18393
ITEM: TIMESTEP
500
ITEM: NUMBER OF ATOMS
5
ITEM: BOX BOUNDS pp pp pp
0.0000000000000000e+00 1.5500000000000000e+01
0.0000000000000000e+00 1.5500000000000000e+01
0.0000000000000000e+00 1.5500000000000000e+01
ITEM: ATOMS id type xs ys zs
3 2 0.240888 0.360669 0.281051
4 2 0.224224 0.30406 0.322537
5 3 0.295113 0.317674 0.304025
2 2 0.936581 0.0829739 0.212843
1 2 0.931951 0.147865 0.181167
ITEM: TIMESTEP
600
ITEM: NUMBER OF ATOMS
5
ITEM: BOX BOUNDS pp pp pp
0.0000000000000000e+00 1.5500000000000000e+01
0.0000000000000000e+00 1.5500000000000000e+01
0.0000000000000000e+00 1.5500000000000000e+01
ITEM: ATOMS id type xs ys zs
3 2 0.237936 0.357221 0.289491
4 2 0.254204 0.285826 0.292624
5 3 0.301033 0.337513 0.320372
2 2 0.97548 0.090942 0.214211
1 2 0.926318 0.13619 0.186547
ITEM: TIMESTEP
700
ITEM: NUMBER OF ATOMS
5
ITEM: BOX BOUNDS pp pp pp
0.0000000000000000e+00 1.5500000000000000e+01
0.0000000000000000e+00 1.5500000000000000e+01
0.0000000000000000e+00 1.5500000000000000e+01
ITEM: ATOMS id type xs ys zs
3 2 0.235485 0.331496 0.295761
4 2 0.299335 0.307282 0.268428
5 3 0.297029 0.339552 0.332238
2 2 0.00649732 0.112854 0.208048
1 2 0.934531 0.10998 0.200678
ITEM: TIMESTEP
800
ITEM: NUMBER OF ATOMS
5
ITEM: BOX BOUNDS pp pp pp
0.0000000000000000e+00 1.5500000000000000e+01
0.0000000000000000e+00 1.5500000000000000e+01
0.0000000000000000e+00 1.5500000000000000e+01
ITEM: ATOMS id type xs ys zs
3 2 0.275073 0.291217 0.282136
4 2 0.310326 0.34989 0.26795
5 3 0.293791 0.3344 0.33887
2 2 0.0146392 0.137031 0.198194
1 2 0.974631 0.0806118 0.220344
ITEM: TIMESTEP
900
ITEM: NUMBER OF ATOMS
5
ITEM: BOX BOUNDS pp pp pp
0.0000000000000000e+00 1.5500000000000000e+01
0.0000000000000000e+00 1.5500000000000000e+01
0.0000000000000000e+00 1.5500000000000000e+01
ITEM: ATOMS id type xs ys zs
3 2 0.334322 0.296172 0.276012
4 2 0.296623 0.361572 0.275916
5 3 0.28967 0.315221 0.330443
2 2 0.00574562 0.137552 0.197545
1 2 1.02594 0.0756061 0.229631
ITEM: TIMESTEP
1000
ITEM: NUMBER OF ATOMS
5
ITEM: BOX BOUNDS pp pp pp
0.0000000000000000e+00 1.5500000000000000e+01
0.0000000000000000e+00 1.5500000000000000e+01
0.0000000000000000e+00 1.5500000000000000e+01
ITEM: ATOMS id type xs ys zs
3 2 0.355768 0.321376 0.284774
4 2 0.294418 0.355032 0.27601
5 3 0.295867 0.294929 0.317505
2 2 0.00251555 0.126298 0.202981
1 2 0.0553849 0.0841589 0.229541
ITEM: TIMESTEP
1100
ITEM: NUMBER OF ATOMS
5
ITEM: BOX BOUNDS pp pp pp
0.0000000000000000e+00 1.5500000000000000e+01
0.0000000000000000e+00 1.5500000000000000e+01
0.0000000000000000e+00 1.5500000000000000e+01
ITEM: ATOMS id type xs ys zs
3 2 0.361417 0.340986 0.30373
4 2 0.292059 0.346607 0.275862
5 3 0.320701 0.281828 0.294124
2 2 0.00782955 0.107046 0.213354
1 2 0.0793233 0.100515 0.225146
ITEM: TIMESTEP
1200
ITEM: NUMBER OF ATOMS
5
ITEM: BOX BOUNDS pp pp pp
0.0000000000000000e+00 1.5500000000000000e+01
0.0000000000000000e+00 1.5500000000000000e+01
0.0000000000000000e+00 1.5500000000000000e+01
ITEM: ATOMS id type xs ys zs
3 2 0.348191 0.340648 0.323934
4 2 0.29773 0.325616 0.276387
5 3 0.369596 0.300184 0.266598
2 2 0.0382908 0.0785445 0.231474
1 2 0.0922242 0.124891 0.215898
ITEM: TIMESTEP
1300
ITEM: NUMBER OF ATOMS
5
ITEM: BOX BOUNDS pp pp pp
0.0000000000000000e+00 1.5500000000000000e+01
0.0000000000000000e+00 1.5500000000000000e+01
0.0000000000000000e+00 1.5500000000000000e+01
ITEM: ATOMS id type xs ys zs
3 2 0.351395 0.3216 0.329154
4 2 0.333208 0.29313 0.262102
5 3 0.37576 0.34833 0.268211
2 2 0.0931939 0.0672112 0.24446
1 2 0.0847312 0.13188 0.212622
ITEM: TIMESTEP
1400
ITEM: NUMBER OF ATOMS
5
ITEM: BOX BOUNDS pp pp pp
0.0000000000000000e+00 1.5500000000000000e+01
0.0000000000000000e+00 1.5500000000000000e+01
0.0000000000000000e+00 1.5500000000000000e+01
ITEM: ATOMS id type xs ys zs
3 2 0.358627 0.303801 0.321479
4 2 0.385635 0.295437 0.257597
5 3 0.354052 0.360808 0.274022
2 2 0.138094 0.0796537 0.244793
1 2 0.0802962 0.115879 0.220579
ITEM: TIMESTEP
1500
ITEM: NUMBER OF ATOMS
5
ITEM: BOX BOUNDS pp pp pp
0.0000000000000000e+00 1.5500000000000000e+01
0.0000000000000000e+00 1.5500000000000000e+01
0.0000000000000000e+00 1.5500000000000000e+01
ITEM: ATOMS id type xs ys zs
3 2 0.367001 0.288574 0.310168
4 2 0.415987 0.325048 0.266262
5 3 0.345885 0.343848 0.27148
2 2 0.161578 0.0988294 0.239228
1 2 0.0897171 0.0939595 0.232887
ITEM: TIMESTEP
1600
ITEM: NUMBER OF ATOMS
5
ITEM: BOX BOUNDS pp pp pp
0.0000000000000000e+00 1.5500000000000000e+01
0.0000000000000000e+00 1.5500000000000000e+01
0.0000000000000000e+00 1.5500000000000000e+01
ITEM: ATOMS id type xs ys zs
3 2 0.388796 0.278542 0.293459
4 2 0.416177 0.343574 0.286562
5 3 0.348518 0.33306 0.263624
2 2 0.169529 0.114209 0.233555
1 2 0.10871 0.0765527 0.244086
ITEM: TIMESTEP
1700
ITEM: NUMBER OF ATOMS
5
ITEM: BOX BOUNDS pp pp pp
0.0000000000000000e+00 1.5500000000000000e+01
0.0000000000000000e+00 1.5500000000000000e+01
0.0000000000000000e+00 1.5500000000000000e+01
ITEM: ATOMS id type xs ys zs
3 2 0.418222 0.284249 0.272344
4 2 0.404582 0.348191 0.30906
5 3 0.358488 0.319785 0.257292
2 2 0.168469 0.125271 0.229093
1 2 0.140931 0.0634992 0.254941
ITEM: TIMESTEP
1800
ITEM: NUMBER OF ATOMS
5
ITEM: BOX BOUNDS pp pp pp
0.0000000000000000e+00 1.5500000000000000e+01
0.0000000000000000e+00 1.5500000000000000e+01
0.0000000000000000e+00 1.5500000000000000e+01
ITEM: ATOMS id type xs ys zs
3 2 0.446886 0.330244 0.263028
4 2 0.395334 0.316521 0.317302
5 3 0.381357 0.300588 0.250711
2 2 0.159974 0.12025 0.231937
1 2 0.197615 0.0658071 0.261968
ITEM: TIMESTEP
1900
ITEM: NUMBER OF ATOMS
5
ITEM: BOX BOUNDS pp pp pp
0.0000000000000000e+00 1.5500000000000000e+01
0.0000000000000000e+00 1.5500000000000000e+01
0.0000000000000000e+00 1.5500000000000000e+01
ITEM: ATOMS id type xs ys zs
3 2 0.418247 0.35461 0.276712
4 2 0.417045 0.29351 0.308871
5 3 0.432342 0.293843 0.237396
2 2 0.168042 0.0913468 0.248103
1 2 0.240369 0.092148 0.256186
ITEM: TIMESTEP
2000
ITEM: NUMBER OF ATOMS
5
ITEM: BOX BOUNDS pp pp pp
0.0000000000000000e+00 1.5500000000000000e+01
0.0000000000000000e+00 1.5500000000000000e+01
0.0000000000000000e+00 1.5500000000000000e+01
ITEM: ATOMS id type xs ys zs
3 2 0.399276 0.337717 0.26953
4 2 0.436975 0.278521 0.299465
5 3 0.46461 0.321276 0.247804
2 2 0.196472 0.0680783 0.26365
1 2 0.250968 0.11381 0.248589
ITEM: TIMESTEP
2100
ITEM: NUMBER OF ATOMS
5
ITEM: BOX BOUNDS pp pp pp
0.0000000000000000e+00 1.5500000000000000e+01
0.0000000000000000e+00 1.5500000000000000e+01
0.0000000000000000e+00 1.5500000000000000e+01
ITEM: ATOMS id type xs ys zs
3 2 0.402975 0.3129 0.257638
4 2 0.45594 0.275577 0.28391
5 3 0.469585 0.344738 0.26994
2 2 0.232814 0.0579914 0.273783
1 2 0.248172 0.123066 0.245266
ITEM: TIMESTEP
2200
ITEM: NUMBER OF ATOMS
5
ITEM: BOX BOUNDS pp pp pp
0.0000000000000000e+00 1.5500000000000000e+01
0.0000000000000000e+00 1.5500000000000000e+01
0.0000000000000000e+00 1.5500000000000000e+01
ITEM: ATOMS id type xs ys zs
3 2 0.426597 0.298168 0.240365
4 2 0.496403 0.293297 0.264972
5 3 0.445118 0.334609 0.298302
2 2 0.289126 0.0663616 0.278289
1 2 0.241748 0.114335 0.250801
ITEM: TIMESTEP
2300
ITEM: NUMBER OF ATOMS
5
ITEM: BOX BOUNDS pp pp pp
0.0000000000000000e+00 1.5500000000000000e+01
0.0000000000000000e+00 1.5500000000000000e+01
0.0000000000000000e+00 1.5500000000000000e+01
ITEM: ATOMS id type xs ys zs
3 2 0.468578 0.292231 0.22568
4 2 0.492207 0.340838 0.269565
5 3 0.456647 0.283367 0.298525
2 2 0.331491 0.101724 0.269409
1 2 0.262713 0.0791678 0.272308
ITEM: TIMESTEP
2400
ITEM: NUMBER OF ATOMS
5
ITEM: BOX BOUNDS pp pp pp
0.0000000000000000e+00 1.5500000000000000e+01
0.0000000000000000e+00 1.5500000000000000e+01
0.0000000000000000e+00 1.5500000000000000e+01
ITEM: ATOMS id type xs ys zs
3 2 0.503989 0.303146 0.225083
4 2 0.458756 0.335715 0.275889
5 3 0.48828 0.269771 0.285902
2 2 0.335192 0.121323 0.263072
1 2 0.304053 0.0607835 0.287467
ITEM: TIMESTEP
2500
ITEM: NUMBER OF ATOMS
5
ITEM: BOX BOUNDS pp pp pp
0.0000000000000000e+00 1.5500000000000000e+01
0.0000000000000000e+00 1.5500000000000000e+01
0.0000000000000000e+00 1.5500000000000000e+01
ITEM: ATOMS id type xs ys zs
3 2 0.516259 0.330243 0.241128
4 2 0.452441 0.304088 0.260008
5 3 0.509957 0.26605 0.279743
2 2 0.330655 0.12389 0.263871
1 2 0.348702 0.0607879 0.294322
ITEM: TIMESTEP
2600
ITEM: NUMBER OF ATOMS
5
ITEM: BOX BOUNDS pp pp pp
0.0000000000000000e+00 1.5500000000000000e+01
0.0000000000000000e+00 1.5500000000000000e+01
0.0000000000000000e+00 1.5500000000000000e+01
ITEM: ATOMS id type xs ys zs
3 2 0.499729 0.335309 0.272041
4 2 0.4725 0.280862 0.232871
5 3 0.53713 0.272589 0.269034
2 2 0.332438 0.109972 0.273705
1 2 0.395361 0.0796934 0.293358
ITEM: TIMESTEP
2700
ITEM: NUMBER OF ATOMS
5
ITEM: BOX BOUNDS pp pp pp
0.0000000000000000e+00 1.5500000000000000e+01
0.0000000000000000e+00 1.5500000000000000e+01
0.0000000000000000e+00 1.5500000000000000e+01
ITEM: ATOMS id type xs ys zs
3 2 0.489534 0.280033 0.285929
4 2 0.508465 0.281364 0.212883
5 3 0.551754 0.308768 0.266098
2 2 0.3677 0.0801186 0.295408
1 2 0.428192 0.119049 0.283348
ITEM: TIMESTEP
2800
ITEM: NUMBER OF ATOMS
5
ITEM: BOX BOUNDS pp pp pp
0.0000000000000000e+00 1.5500000000000000e+01
0.0000000000000000e+00 1.5500000000000000e+01
0.0000000000000000e+00 1.5500000000000000e+01
ITEM: ATOMS id type xs ys zs
3 2 0.525508 0.243711 0.271057
4 2 0.533879 0.285484 0.212653
5 3 0.519088 0.318405 0.27462
2 2 0.42515 0.0737197 0.307832
1 2 0.430489 0.140596 0.279671
ITEM: TIMESTEP
2900
ITEM: NUMBER OF ATOMS
5
ITEM: BOX BOUNDS pp pp pp
0.0000000000000000e+00 1.5500000000000000e+01
0.0000000000000000e+00 1.5500000000000000e+01
0.0000000000000000e+00 1.5500000000000000e+01
ITEM: ATOMS id type xs ys zs
3 2 0.539128 0.234009 0.264702
4 2 0.548088 0.291764 0.220283
5 3 0.495157 0.28912 0.271528
2 2 0.466944 0.0894851 0.307985
1 2 0.441726 0.152766 0.282729
ITEM: TIMESTEP
3000
ITEM: NUMBER OF ATOMS
5
ITEM: BOX BOUNDS pp pp pp
0.0000000000000000e+00 1.5500000000000000e+01
0.0000000000000000e+00 1.5500000000000000e+01
0.0000000000000000e+00 1.5500000000000000e+01
ITEM: ATOMS id type xs ys zs
3 2 0.537365 0.202532 0.252455
4 2 0.541663 0.288821 0.254273
5 3 0.482638 0.246831 0.250649
2 2 0.514476 0.124342 0.297772
1 2 0.471134 0.189905 0.293455
ITEM: TIMESTEP
3100
ITEM: NUMBER OF ATOMS
5
ITEM: BOX BOUNDS pp pp pp
0.0000000000000000e+00 1.5500000000000000e+01
0.0000000000000000e+00 1.5500000000000000e+01
0.0000000000000000e+00 1.5500000000000000e+01
ITEM: ATOMS id type xs ys zs
3 2 0.542743 0.202136 0.240645
4 2 0.535349 0.261902 0.278312
5 3 0.480921 0.226566 0.23595
2 2 0.53507 0.151744 0.288749
1 2 0.482185 0.207652 0.305659
ITEM: TIMESTEP
3200
ITEM: NUMBER OF ATOMS
5
ITEM: BOX BOUNDS pp pp pp
0.0000000000000000e+00 1.5500000000000000e+01
0.0000000000000000e+00 1.5500000000000000e+01
0.0000000000000000e+00 1.5500000000000000e+01
ITEM: ATOMS id type xs ys zs
5 3 0.482982 0.208819 0.236943
1 2 0.477482 0.212216 0.314515
3 2 0.553848 0.207291 0.225508
4 2 0.534652 0.245574 0.288007
2 2 0.539641 0.175067 0.284642
ITEM: TIMESTEP
3300
ITEM: NUMBER OF ATOMS
5
ITEM: BOX BOUNDS pp pp pp
0.0000000000000000e+00 1.5500000000000000e+01
0.0000000000000000e+00 1.5500000000000000e+01
0.0000000000000000e+00 1.5500000000000000e+01
ITEM: ATOMS id type xs ys zs
5 3 0.488062 0.2033 0.243729
1 2 0.479986 0.207971 0.314315
3 2 0.555739 0.211657 0.226739
4 2 0.533388 0.252294 0.279687
2 2 0.536865 0.173288 0.285279
ITEM: TIMESTEP
3400
ITEM: NUMBER OF ATOMS
5
ITEM: BOX BOUNDS pp pp pp
0.0000000000000000e+00 1.5500000000000000e+01
0.0000000000000000e+00 1.5500000000000000e+01
0.0000000000000000e+00 1.5500000000000000e+01
ITEM: ATOMS id type xs ys zs
5 3 0.485873 0.203669 0.242331
1 2 0.484645 0.208083 0.315478
3 2 0.558276 0.211793 0.225425
4 2 0.529989 0.247647 0.280226
2 2 0.538361 0.17706 0.286365
ITEM: TIMESTEP
3500
ITEM: NUMBER OF ATOMS
5
ITEM: BOX BOUNDS pp pp pp
0.0000000000000000e+00 1.5500000000000000e+01
0.0000000000000000e+00 1.5500000000000000e+01
0.0000000000000000e+00 1.5500000000000000e+01
ITEM: ATOMS id type xs ys zs
5 3 0.486879 0.204984 0.243426
1 2 0.482023 0.206993 0.315968
3 2 0.557374 0.21054 0.22481
4 2 0.530152 0.246377 0.280338
2 2 0.54314 0.179154 0.285342
ITEM: TIMESTEP
3600
ITEM: NUMBER OF ATOMS
5
ITEM: BOX BOUNDS pp pp pp
0.0000000000000000e+00 1.5500000000000000e+01
0.0000000000000000e+00 1.5500000000000000e+01
0.0000000000000000e+00 1.5500000000000000e+01
ITEM: ATOMS id type xs ys zs
5 3 0.487367 0.201467 0.244886
1 2 0.482685 0.208515 0.316294
3 2 0.55775 0.214917 0.223228
4 2 0.530634 0.247468 0.279828
2 2 0.543833 0.175454 0.285714
ITEM: TIMESTEP
3700
ITEM: NUMBER OF ATOMS
5
ITEM: BOX BOUNDS pp pp pp
0.0000000000000000e+00 1.5500000000000000e+01
0.0000000000000000e+00 1.5500000000000000e+01
0.0000000000000000e+00 1.5500000000000000e+01
ITEM: ATOMS id type xs ys zs
5 3 0.490915 0.203887 0.244375
1 2 0.484738 0.201396 0.318065
3 2 0.555978 0.21072 0.222446
4 2 0.530189 0.253926 0.278606
2 2 0.544342 0.177566 0.286555
ITEM: TIMESTEP
3800
ITEM: NUMBER OF ATOMS
5
ITEM: BOX BOUNDS pp pp pp
0.0000000000000000e+00 1.5500000000000000e+01
0.0000000000000000e+00 1.5500000000000000e+01
0.0000000000000000e+00 1.5500000000000000e+01
ITEM: ATOMS id type xs ys zs
5 3 0.486503 0.196748 0.242905
1 2 0.488769 0.206171 0.317082
3 2 0.557773 0.216119 0.225801
4 2 0.528903 0.249196 0.279166
2 2 0.549429 0.178824 0.28522
ITEM: TIMESTEP
3900
ITEM: NUMBER OF ATOMS
5
ITEM: BOX BOUNDS pp pp pp
0.0000000000000000e+00 1.5500000000000000e+01
0.0000000000000000e+00 1.5500000000000000e+01
0.0000000000000000e+00 1.5500000000000000e+01
ITEM: ATOMS id type xs ys zs
5 3 0.493417 0.198112 0.244536
1 2 0.490788 0.202713 0.321471
3 2 0.559701 0.215604 0.222685
4 2 0.523079 0.253642 0.27687
2 2 0.549727 0.17654 0.284741
ITEM: TIMESTEP
4000
ITEM: NUMBER OF ATOMS
5
ITEM: BOX BOUNDS pp pp pp
0.0000000000000000e+00 1.5500000000000000e+01
0.0000000000000000e+00 1.5500000000000000e+01
0.0000000000000000e+00 1.5500000000000000e+01
ITEM: ATOMS id type xs ys zs
5 3 0.492762 0.191354 0.243539
1 2 0.492346 0.202335 0.316904
3 2 0.556007 0.21907 0.222934
4 2 0.528999 0.251212 0.279739
2 2 0.550616 0.182304 0.287287
ITEM: TIMESTEP
4100
ITEM: NUMBER OF ATOMS
5
ITEM: BOX BOUNDS pp pp pp
0.0000000000000000e+00 1.5500000000000000e+01
0.0000000000000000e+00 1.5500000000000000e+01
0.0000000000000000e+00 1.5500000000000000e+01
ITEM: ATOMS id type xs ys zs
5 3 0.495291 0.192584 0.24667
1 2 0.490806 0.202566 0.317603
3 2 0.558418 0.217909 0.22152
4 2 0.523938 0.250361 0.279157
2 2 0.55522 0.182607 0.285525
ITEM: TIMESTEP
4200
ITEM: NUMBER OF ATOMS
5
ITEM: BOX BOUNDS pp pp pp
0.0000000000000000e+00 1.5500000000000000e+01
0.0000000000000000e+00 1.5500000000000000e+01
0.0000000000000000e+00 1.5500000000000000e+01
ITEM: ATOMS id type xs ys zs
5 3 0.497877 0.192549 0.245713
1 2 0.491797 0.200319 0.322543
3 2 0.558342 0.218347 0.221566
4 2 0.523281 0.250227 0.275763
2 2 0.555239 0.184346 0.28496
ITEM: TIMESTEP
4300
ITEM: NUMBER OF ATOMS
5
ITEM: BOX BOUNDS pp pp pp
0.0000000000000000e+00 1.5500000000000000e+01
0.0000000000000000e+00 1.5500000000000000e+01
0.0000000000000000e+00 1.5500000000000000e+01
ITEM: ATOMS id type xs ys zs
5 3 0.498795 0.188844 0.246343
1 2 0.49166 0.201494 0.32062
3 2 0.557891 0.218734 0.218645
4 2 0.523405 0.24815 0.27947
2 2 0.559113 0.188203 0.285573
ITEM: TIMESTEP
4400
ITEM: NUMBER OF ATOMS
5
ITEM: BOX BOUNDS pp pp pp
0.0000000000000000e+00 1.5500000000000000e+01
0.0000000000000000e+00 1.5500000000000000e+01
0.0000000000000000e+00 1.5500000000000000e+01
ITEM: ATOMS id type xs ys zs
5 3 0.497443 0.186683 0.24957
1 2 0.49319 0.196801 0.319247
3 2 0.560043 0.222047 0.219695
4 2 0.521835 0.247856 0.272619
2 2 0.564583 0.191516 0.289672
ITEM: TIMESTEP
4500
ITEM: NUMBER OF ATOMS
5
ITEM: BOX BOUNDS pp pp pp
0.0000000000000000e+00 1.5500000000000000e+01
0.0000000000000000e+00 1.5500000000000000e+01
0.0000000000000000e+00 1.5500000000000000e+01
ITEM: ATOMS id type xs ys zs
5 3 0.504654 0.183418 0.248706
1 2 0.500629 0.196943 0.317354
3 2 0.558032 0.221528 0.220309
4 2 0.51676 0.251977 0.275299
2 2 0.562108 0.19061 0.28926
ITEM: TIMESTEP
4600
ITEM: NUMBER OF ATOMS
5
ITEM: BOX BOUNDS pp pp pp
0.0000000000000000e+00 1.5500000000000000e+01
0.0000000000000000e+00 1.5500000000000000e+01
0.0000000000000000e+00 1.5500000000000000e+01
ITEM: ATOMS id type xs ys zs
5 3 0.506155 0.180789 0.248424
1 2 0.497592 0.195356 0.320321
3 2 0.558766 0.222649 0.221591
4 2 0.518669 0.249189 0.275021
2 2 0.564695 0.196183 0.285661
ITEM: TIMESTEP
4700
ITEM: NUMBER OF ATOMS
5
ITEM: BOX BOUNDS pp pp pp
0.0000000000000000e+00 1.5500000000000000e+01
0.0000000000000000e+00 1.5500000000000000e+01
0.0000000000000000e+00 1.5500000000000000e+01
ITEM: ATOMS id type xs ys zs
5 3 0.506196 0.180661 0.250058
1 2 0.501775 0.194347 0.320675
3 2 0.560616 0.225751 0.220669
4 2 0.515923 0.246092 0.273559
2 2 0.564557 0.197048 0.286135
ITEM: TIMESTEP
4800
ITEM: NUMBER OF ATOMS
5
ITEM: BOX BOUNDS pp pp pp
0.0000000000000000e+00 1.5500000000000000e+01
0.0000000000000000e+00 1.5500000000000000e+01
0.0000000000000000e+00 1.5500000000000000e+01
ITEM: ATOMS id type xs ys zs
5 3 0.508433 0.182889 0.25067
1 2 0.503192 0.187745 0.32022
3 2 0.55825 0.222496 0.22063
4 2 0.51592 0.249004 0.271435
2 2 0.566664 0.201481 0.288224
ITEM: TIMESTEP
4900
ITEM: NUMBER OF ATOMS
5
ITEM: BOX BOUNDS pp pp pp
0.0000000000000000e+00 1.5500000000000000e+01
0.0000000000000000e+00 1.5500000000000000e+01
0.0000000000000000e+00 1.5500000000000000e+01
ITEM: ATOMS id type xs ys zs
5 3 0.510308 0.180153 0.247169
1 2 0.507163 0.187831 0.324195
3 2 0.558524 0.223115 0.22007
4 2 0.513543 0.245426 0.27059
2 2 0.568433 0.206627 0.289291
ITEM: TIMESTEP
5000
ITEM: NUMBER OF ATOMS
5
ITEM: BOX BOUNDS pp pp pp
0.0000000000000000e+00 1.5500000000000000e+01
0.0000000000000000e+00 1.5500000000000000e+01
0.0000000000000000e+00 1.5500000000000000e+01
ITEM: ATOMS id type xs ys zs
5 3 0.519015 0.171244 0.24991
1 2 0.509119 0.19262 0.324192
3 2 0.557537 0.230357 0.220975
4 2 0.509536 0.245684 0.270411
2 2 0.569445 0.202688 0.28599
ITEM: TIMESTEP
5100
ITEM: NUMBER OF ATOMS
5
ITEM: BOX BOUNDS pp pp pp
0.0000000000000000e+00 1.5500000000000000e+01
0.0000000000000000e+00 1.5500000000000000e+01
0.0000000000000000e+00 1.5500000000000000e+01
ITEM: ATOMS id type xs ys zs
5 3 0.521876 0.17193 0.25429
1 2 0.504337 0.187216 0.320025
3 2 0.556452 0.227203 0.219098
4 2 0.510389 0.244056 0.273711
2 2 0.57657 0.211771 0.284477
ITEM: TIMESTEP
5200
ITEM: NUMBER OF ATOMS
5
ITEM: BOX BOUNDS pp pp pp
0.0000000000000000e+00 1.5500000000000000e+01
0.0000000000000000e+00 1.5500000000000000e+01
0.0000000000000000e+00 1.5500000000000000e+01
ITEM: ATOMS id type xs ys zs
5 3 0.523004 0.172204 0.250023
1 2 0.511169 0.188877 0.32415
3 2 0.55796 0.230461 0.217245
4 2 0.508726 0.239795 0.271869
2 2 0.572575 0.210519 0.288406
ITEM: TIMESTEP
5300
ITEM: NUMBER OF ATOMS
5
ITEM: BOX BOUNDS pp pp pp
0.0000000000000000e+00 1.5500000000000000e+01
0.0000000000000000e+00 1.5500000000000000e+01
0.0000000000000000e+00 1.5500000000000000e+01
ITEM: ATOMS id type xs ys zs
5 3 0.5257 0.172561 0.251402
1 2 0.514026 0.185433 0.321853
3 2 0.554922 0.227669 0.219731
4 2 0.510077 0.242473 0.271206
2 2 0.572209 0.213427 0.287586
ITEM: TIMESTEP
5400
ITEM: NUMBER OF ATOMS
5
ITEM: BOX BOUNDS pp pp pp
0.0000000000000000e+00 1.5500000000000000e+01
0.0000000000000000e+00 1.5500000000000000e+01
0.0000000000000000e+00 1.5500000000000000e+01
ITEM: ATOMS id type xs ys zs
5 3 0.52752 0.169873 0.250187
1 2 0.517707 0.187719 0.321569
3 2 0.555807 0.230056 0.220591
4 2 0.505658 0.240722 0.270149
2 2 0.573862 0.21289 0.28937
ITEM: TIMESTEP
5500
ITEM: NUMBER OF ATOMS
5
ITEM: BOX BOUNDS pp pp pp
0.0000000000000000e+00 1.5500000000000000e+01
0.0000000000000000e+00 1.5500000000000000e+01
0.0000000000000000e+00 1.5500000000000000e+01
ITEM: ATOMS id type xs ys zs
5 3 0.532202 0.169852 0.253306
1 2 0.514044 0.184341 0.320801
3 2 0.556759 0.230363 0.21455
4 2 0.506641 0.237213 0.273231
2 2 0.576218 0.219045 0.290109
ITEM: TIMESTEP
5600
ITEM: NUMBER OF ATOMS
5
ITEM: BOX BOUNDS pp pp pp
0.0000000000000000e+00 1.5500000000000000e+01
0.0000000000000000e+00 1.5500000000000000e+01
0.0000000000000000e+00 1.5500000000000000e+01
ITEM: ATOMS id type xs ys zs
5 3 0.544308 0.163521 0.253653
1 2 0.518136 0.184703 0.316456
3 2 0.553671 0.230974 0.21781
4 2 0.505928 0.242798 0.273591
2 2 0.57095 0.218223 0.290661
ITEM: TIMESTEP
5700
ITEM: NUMBER OF ATOMS
5
ITEM: BOX BOUNDS pp pp pp
0.0000000000000000e+00 1.5500000000000000e+01
0.0000000000000000e+00 1.5500000000000000e+01
0.0000000000000000e+00 1.5500000000000000e+01
ITEM: ATOMS id type xs ys zs
5 3 0.538655 0.168884 0.251172
1 2 0.522916 0.182893 0.320147
3 2 0.558494 0.23133 0.223292
4 2 0.503009 0.232538 0.266561
2 2 0.575411 0.224111 0.291135
ITEM: TIMESTEP
5800
ITEM: NUMBER OF ATOMS
5
ITEM: BOX BOUNDS pp pp pp
0.0000000000000000e+00 1.5500000000000000e+01
0.0000000000000000e+00 1.5500000000000000e+01
0.0000000000000000e+00 1.5500000000000000e+01
ITEM: ATOMS id type xs ys zs
5 3 0.544038 0.17226 0.253122
1 2 0.522119 0.181519 0.322888
3 2 0.559666 0.23357 0.215547
4 2 0.504595 0.22878 0.271178
2 2 0.572077 0.223292 0.28967
ITEM: TIMESTEP
5900
ITEM: NUMBER OF ATOMS
5
ITEM: BOX BOUNDS pp pp pp
0.0000000000000000e+00 1.5500000000000000e+01
0.0000000000000000e+00 1.5500000000000000e+01
0.0000000000000000e+00 1.5500000000000000e+01
ITEM: ATOMS id type xs ys zs
5 3 0.546463 0.169952 0.251805
1 2 0.524966 0.183067 0.321596
3 2 0.555064 0.232453 0.22064
4 2 0.504156 0.22762 0.266762
2 2 0.575452 0.226027 0.29169
ITEM: TIMESTEP
6000
ITEM: NUMBER OF ATOMS
5
ITEM: BOX BOUNDS pp pp pp
0.0000000000000000e+00 1.5500000000000000e+01
0.0000000000000000e+00 1.5500000000000000e+01
0.0000000000000000e+00 1.5500000000000000e+01
ITEM: ATOMS id type xs ys zs
5 3 0.545812 0.168012 0.25311
1 2 0.528533 0.181836 0.319966
3 2 0.560257 0.234579 0.221383
4 2 0.503017 0.224907 0.268809
2 2 0.572024 0.229487 0.289314
ITEM: TIMESTEP
6100
ITEM: NUMBER OF ATOMS
5
ITEM: BOX BOUNDS pp pp pp
0.0000000000000000e+00 1.5500000000000000e+01
0.0000000000000000e+00 1.5500000000000000e+01
0.0000000000000000e+00 1.5500000000000000e+01
ITEM: ATOMS id type xs ys zs
5 3 0.55278 0.172338 0.251797
1 2 0.526016 0.180929 0.324356
3 2 0.554706 0.233896 0.21722
4 2 0.505943 0.222366 0.266125
2 2 0.574338 0.228946 0.293183
ITEM: TIMESTEP
6200
ITEM: NUMBER OF ATOMS
5
ITEM: BOX BOUNDS pp pp pp
0.0000000000000000e+00 1.5500000000000000e+01
0.0000000000000000e+00 1.5500000000000000e+01
0.0000000000000000e+00 1.5500000000000000e+01
ITEM: ATOMS id type xs ys zs
5 3 0.555335 0.17143 0.252757
1 2 0.53389 0.18095 0.324844
3 2 0.560193 0.234266 0.219217
4 2 0.502667 0.218979 0.267566
2 2 0.567691 0.232347 0.288444
ITEM: TIMESTEP
6300
ITEM: NUMBER OF ATOMS
5
ITEM: BOX BOUNDS pp pp pp
0.0000000000000000e+00 1.5500000000000000e+01
0.0000000000000000e+00 1.5500000000000000e+01
0.0000000000000000e+00 1.5500000000000000e+01
ITEM: ATOMS id type xs ys zs
5 3 0.55972 0.170102 0.258007
1 2 0.53267 0.179833 0.322731
3 2 0.553507 0.239825 0.217196
4 2 0.506087 0.215679 0.266356
2 2 0.573995 0.232014 0.28869
ITEM: TIMESTEP
6400
ITEM: NUMBER OF ATOMS
5
ITEM: BOX BOUNDS pp pp pp
0.0000000000000000e+00 1.5500000000000000e+01
0.0000000000000000e+00 1.5500000000000000e+01
0.0000000000000000e+00 1.5500000000000000e+01
ITEM: ATOMS id type xs ys zs
5 3 0.558145 0.170322 0.25492
1 2 0.540773 0.179845 0.323489
3 2 0.55635 0.236706 0.220102
4 2 0.504637 0.21537 0.26469
2 2 0.570151 0.234867 0.289878
ITEM: TIMESTEP
6500
ITEM: NUMBER OF ATOMS
5
ITEM: BOX BOUNDS pp pp pp
0.0000000000000000e+00 1.5500000000000000e+01
0.0000000000000000e+00 1.5500000000000000e+01
0.0000000000000000e+00 1.5500000000000000e+01
ITEM: ATOMS id type xs ys zs
5 3 0.565948 0.175047 0.254068
1 2 0.53865 0.178621 0.320492
3 2 0.552543 0.231117 0.216905
4 2 0.504574 0.218009 0.26938
2 2 0.571587 0.234045 0.292314
ITEM: TIMESTEP
6600
ITEM: NUMBER OF ATOMS
5
ITEM: BOX BOUNDS pp pp pp
0.0000000000000000e+00 1.5500000000000000e+01
0.0000000000000000e+00 1.5500000000000000e+01
0.0000000000000000e+00 1.5500000000000000e+01
ITEM: ATOMS id type xs ys zs
5 3 0.563463 0.172861 0.250934
1 2 0.541944 0.181843 0.325293
3 2 0.55525 0.237182 0.220212
4 2 0.504724 0.208642 0.267509
2 2 0.571278 0.23603 0.289293
ITEM: TIMESTEP
6700
ITEM: NUMBER OF ATOMS
5
ITEM: BOX BOUNDS pp pp pp
0.0000000000000000e+00 1.5500000000000000e+01
0.0000000000000000e+00 1.5500000000000000e+01
0.0000000000000000e+00 1.5500000000000000e+01
ITEM: ATOMS id type xs ys zs
5 3 0.56941 0.173785 0.255634
1 2 0.5417 0.17487 0.321254
3 2 0.551938 0.23337 0.216609
4 2 0.508396 0.212453 0.270763
2 2 0.569275 0.241739 0.289081
ITEM: TIMESTEP
6800
ITEM: NUMBER OF ATOMS
5
ITEM: BOX BOUNDS pp pp pp
0.0000000000000000e+00 1.5500000000000000e+01
0.0000000000000000e+00 1.5500000000000000e+01
0.0000000000000000e+00 1.5500000000000000e+01
ITEM: ATOMS id type xs ys zs
5 3 0.567404 0.172143 0.253911
1 2 0.555104 0.177236 0.324831
3 2 0.55447 0.235672 0.218026
4 2 0.505084 0.210387 0.264921
2 2 0.564565 0.240284 0.291796
ITEM: TIMESTEP
6900
ITEM: NUMBER OF ATOMS
5
ITEM: BOX BOUNDS pp pp pp
0.0000000000000000e+00 1.5500000000000000e+01
0.0000000000000000e+00 1.5500000000000000e+01
0.0000000000000000e+00 1.5500000000000000e+01
ITEM: ATOMS id type xs ys zs
5 3 0.579307 0.178958 0.252758
1 2 0.550611 0.177009 0.326182
3 2 0.549116 0.237118 0.214258
4 2 0.506857 0.201766 0.272704
2 2 0.567892 0.24027 0.28776
ITEM: TIMESTEP
7000
ITEM: NUMBER OF ATOMS
5
ITEM: BOX BOUNDS pp pp pp
0.0000000000000000e+00 1.5500000000000000e+01
0.0000000000000000e+00 1.5500000000000000e+01
0.0000000000000000e+00 1.5500000000000000e+01
ITEM: ATOMS id type xs ys zs
5 3 0.576933 0.178556 0.25535
1 2 0.555027 0.178284 0.322968
3 2 0.548136 0.237741 0.217812
4 2 0.51072 0.195967 0.268958
2 2 0.567255 0.244214 0.288679
ITEM: TIMESTEP
7100
ITEM: NUMBER OF ATOMS
5
ITEM: BOX BOUNDS pp pp pp
0.0000000000000000e+00 1.5500000000000000e+01
0.0000000000000000e+00 1.5500000000000000e+01
0.0000000000000000e+00 1.5500000000000000e+01
ITEM: ATOMS id type xs ys zs
5 3 0.581895 0.179595 0.253064
1 2 0.556039 0.181203 0.323089
3 2 0.54533 0.234928 0.221924
4 2 0.510731 0.196094 0.266668
2 2 0.567307 0.242673 0.289101
ITEM: TIMESTEP
7200
ITEM: NUMBER OF ATOMS
5
ITEM: BOX BOUNDS pp pp pp
0.0000000000000000e+00 1.5500000000000000e+01
0.0000000000000000e+00 1.5500000000000000e+01
0.0000000000000000e+00 1.5500000000000000e+01
ITEM: ATOMS id type xs ys zs
5 3 0.580406 0.181479 0.253776
1 2 0.562151 0.176728 0.323817
3 2 0.55133 0.236164 0.215653
4 2 0.509949 0.195553 0.272329
2 2 0.560822 0.244285 0.288352
ITEM: TIMESTEP
7300
ITEM: NUMBER OF ATOMS
5
ITEM: BOX BOUNDS pp pp pp
0.0000000000000000e+00 1.5500000000000000e+01
0.0000000000000000e+00 1.5500000000000000e+01
0.0000000000000000e+00 1.5500000000000000e+01
ITEM: ATOMS id type xs ys zs
5 3 0.588249 0.181084 0.254443
1 2 0.558352 0.17923 0.32728
3 2 0.540451 0.238125 0.215294
4 2 0.515531 0.193261 0.268204
2 2 0.566344 0.242152 0.28881
ITEM: TIMESTEP
7400
ITEM: NUMBER OF ATOMS
5
ITEM: BOX BOUNDS pp pp pp
0.0000000000000000e+00 1.5500000000000000e+01
0.0000000000000000e+00 1.5500000000000000e+01
0.0000000000000000e+00 1.5500000000000000e+01
ITEM: ATOMS id type xs ys zs
5 3 0.582297 0.186035 0.254445
1 2 0.572785 0.180482 0.325806
3 2 0.551163 0.235101 0.214884
4 2 0.510155 0.187807 0.268389
2 2 0.55812 0.243958 0.290645
ITEM: TIMESTEP
7500
ITEM: NUMBER OF ATOMS
5
ITEM: BOX BOUNDS pp pp pp
0.0000000000000000e+00 1.5500000000000000e+01
0.0000000000000000e+00 1.5500000000000000e+01
0.0000000000000000e+00 1.5500000000000000e+01
ITEM: ATOMS id type xs ys zs
5 3 0.592231 0.188459 0.254113
1 2 0.567873 0.1766 0.322664
3 2 0.542569 0.230141 0.214943