ITEM: TIMESTEP
100000
ITEM: NUMBER OF ATOMS
5
ITEM: BOX BOUNDS pp pp pp
0.0000000000000000e+00 1.5500000000000000e+01
0.0000000000000000e+00 1.5500000000000000e+01
0.0000000000000000e+00 1.5500000000000000e+01
ITEM: ATOMS id type xs ys zs
3 1 0.154504 0.327284 0.331617
4 2 0.224135 0.310798 0.320952
5 3 0.193856 0.363317 0.283028
2 1 0.858868 0.143518 0.169259
1 1 0.801235 0.104788 0.182513
ITEM: TIMESTEP
100100
ITEM: NUMBER OF ATOMS
5
ITEM: BOX BOUNDS pp pp pp
0.0000000000000000e+00 1.5500000000000000e+01
0.0000000000000000e+00 1.5500000000000000e+01
0.0000000000000000e+00 1.5500000000000000e+01
ITEM: ATOMS id type xs ys zs
3 2 0.175933 0.298045 0.304193
4 2 0.238697 0.32685 0.329793
5 3 0.187931 0.371353 0.299879
2 2 0.856738 0.154338 0.16439
1 1 0.838823 0.0913684 0.193782
ITEM: TIMESTEP
100200
ITEM: NUMBER OF ATOMS
5
ITEM: BOX BOUNDS pp pp pp
0.0000000000000000e+00 1.5500000000000000e+01
0.0000000000000000e+00 1.5500000000000000e+01
0.0000000000000000e+00 1.5500000000000000e+01
ITEM: ATOMS id type xs ys zs
3 2 0.217054 0.302221 0.277603
4 2 0.242587 0.336608 0.336645
5 3 0.17576 0.352589 0.316716
2 2 0.849287 0.149575 0.166745
1 2 0.884431 0.0929714 0.198484
ITEM: TIMESTEP
100300
ITEM: NUMBER OF ATOMS
5
ITEM: BOX BOUNDS pp pp pp
0.0000000000000000e+00 1.5500000000000000e+01
0.0000000000000000e+00 1.5500000000000000e+01
0.0000000000000000e+00 1.5500000000000000e+01
ITEM: ATOMS id type xs ys zs
3 2 0.239703 0.337224 0.273103
4 2 0.244361 0.345557 0.342707
5 3 0.191541 0.30347 0.311006
2 2 0.852384 0.123716 0.180842
1 2 0.92636 0.114857 0.192898
ITEM: TIMESTEP
100400
ITEM: NUMBER OF ATOMS
5
ITEM: BOX BOUNDS pp pp pp
0.0000000000000000e+00 1.5500000000000000e+01
0.0000000000000000e+00 1.5500000000000000e+01
0.0000000000000000e+00 1.5500000000000000e+01
ITEM: ATOMS id type xs ys zs
3 2 0.237711 0.35695 0.276718
4 2 0.225025 0.332531 0.346274
5 3 0.260123 0.290648 0.298918
2 2 0.89241 0.0907635 0.20246
1 2 0.939389 0.143173 0.18132
ITEM: TIMESTEP
100500
ITEM: NUMBER OF ATOMS
5
ITEM: BOX BOUNDS pp pp pp
0.0000000000000000e+00 1.5500000000000000e+01
0.0000000000000000e+00 1.5500000000000000e+01
0.0000000000000000e+00 1.5500000000000000e+01
ITEM: ATOMS id type xs ys zs
3 2 0.23582 0.35753 0.282488
4 2 0.226958 0.300165 0.327037
5 3 0.294718 0.317906 0.308763
2 2 0.938017 0.0835594 0.211591
1 2 0.932784 0.147008 0.179581
ITEM: TIMESTEP
100600
ITEM: NUMBER OF ATOMS
5
ITEM: BOX BOUNDS pp pp pp
0.0000000000000000e+00 1.5500000000000000e+01
0.0000000000000000e+00 1.5500000000000000e+01
0.0000000000000000e+00 1.5500000000000000e+01
ITEM: ATOMS id type xs ys zs
3 2 0.236436 0.351611 0.290705
4 2 0.251831 0.283002 0.301307
5 3 0.296533 0.337364 0.323385
2 2 0.973149 0.0903488 0.212538
1 2 0.928544 0.137601 0.184501
ITEM: TIMESTEP
100700
ITEM: NUMBER OF ATOMS
5
ITEM: BOX BOUNDS pp pp pp
0.0000000000000000e+00 1.5500000000000000e+01
0.0000000000000000e+00 1.5500000000000000e+01
0.0000000000000000e+00 1.5500000000000000e+01
ITEM: ATOMS id type xs ys zs
3 2 0.229731 0.333615 0.296067
4 2 0.29426 0.297146 0.278841
5 3 0.292857 0.336884 0.337056
2 2 0.00440761 0.108545 0.207583
1 2 0.933744 0.116388 0.196396
ITEM: TIMESTEP
100800
ITEM: NUMBER OF ATOMS
5
ITEM: BOX BOUNDS pp pp pp
0.0000000000000000e+00 1.5500000000000000e+01
0.0000000000000000e+00 1.5500000000000000e+01
0.0000000000000000e+00 1.5500000000000000e+01
ITEM: ATOMS id type xs ys zs
3 2 0.257601 0.293212 0.28924
4 2 0.31004 0.341149 0.273858
5 3 0.289761 0.327702 0.344472
2 2 0.0196048 0.13435 0.197474
1 2 0.964925 0.0868424 0.215349
ITEM: TIMESTEP
100900
ITEM: NUMBER OF ATOMS
5
ITEM: BOX BOUNDS pp pp pp
0.0000000000000000e+00 1.5500000000000000e+01
0.0000000000000000e+00 1.5500000000000000e+01
0.0000000000000000e+00 1.5500000000000000e+01
ITEM: ATOMS id type xs ys zs
3 2 0.317424 0.288147 0.278157
4 2 0.291339 0.356122 0.284806
5 3 0.288611 0.312181 0.340214
2 2 0.012392 0.142186 0.193997
1 2 1.01814 0.0753992 0.22762
ITEM: TIMESTEP
101000
ITEM: NUMBER OF ATOMS
5
ITEM: BOX BOUNDS pp pp pp
0.0000000000000000e+00 1.5500000000000000e+01
0.0000000000000000e+00 1.5500000000000000e+01
0.0000000000000000e+00 1.5500000000000000e+01
ITEM: ATOMS id type xs ys zs
3 2 0.35209 0.320837 0.291314
4 2 0.28119 0.345182 0.283368
5 3 0.299864 0.285311 0.324512
2 2 0.00763533 0.126787 0.202188
1 2 0.0643008 0.0876403 0.227362
ITEM: TIMESTEP
101100
ITEM: NUMBER OF ATOMS
5
ITEM: BOX BOUNDS pp pp pp
0.0000000000000000e+00 1.5500000000000000e+01
0.0000000000000000e+00 1.5500000000000000e+01
0.0000000000000000e+00 1.5500000000000000e+01
ITEM: ATOMS id type xs ys zs
3 2 0.347797 0.344514 0.315945
4 2 0.287375 0.328817 0.281327
5 3 0.330501 0.27321 0.298236
2 2 0.0194884 0.102522 0.216408
1 2 0.0904106 0.109135 0.220435
ITEM: TIMESTEP
101200
ITEM: NUMBER OF ATOMS
5
ITEM: BOX BOUNDS pp pp pp
0.0000000000000000e+00 1.5500000000000000e+01
0.0000000000000000e+00 1.5500000000000000e+01
0.0000000000000000e+00 1.5500000000000000e+01
ITEM: ATOMS id type xs ys zs
3 2 0.334946 0.33223 0.333157
4 2 0.295631 0.309706 0.277564
5 3 0.368675 0.299441 0.28089
2 2 0.0509503 0.0802078 0.231751
1 2 0.098608 0.128757 0.212737
ITEM: TIMESTEP
101300
ITEM: NUMBER OF ATOMS
5
ITEM: BOX BOUNDS pp pp pp
0.0000000000000000e+00 1.5500000000000000e+01
0.0000000000000000e+00 1.5500000000000000e+01
0.0000000000000000e+00 1.5500000000000000e+01
ITEM: ATOMS id type xs ys zs
3 2 0.340274 0.30126 0.335601
4 2 0.333867 0.283697 0.265482
5 3 0.368857 0.349395 0.285323
2 2 0.110216 0.0713384 0.24372
1 2 0.0916735 0.134349 0.210891
ITEM: TIMESTEP
101400
ITEM: NUMBER OF ATOMS
5
ITEM: BOX BOUNDS pp pp pp
0.0000000000000000e+00 1.5500000000000000e+01
0.0000000000000000e+00 1.5500000000000000e+01
0.0000000000000000e+00 1.5500000000000000e+01
ITEM: ATOMS id type xs ys zs
3 2 0.35908 0.282779 0.328554
4 2 0.390572 0.304174 0.261858
5 3 0.336403 0.340252 0.290777
2 2 0.162421 0.0922667 0.240376
1 2 0.091499 0.110368 0.224319
ITEM: TIMESTEP
101500
ITEM: NUMBER OF ATOMS
5
ITEM: BOX BOUNDS pp pp pp
0.0000000000000000e+00 1.5500000000000000e+01
0.0000000000000000e+00 1.5500000000000000e+01
0.0000000000000000e+00 1.5500000000000000e+01
ITEM: ATOMS id type xs ys zs
3 2 0.378641 0.273388 0.313769
4 2 0.403626 0.330917 0.282955
5 3 0.332208 0.317903 0.280918
2 2 0.179078 0.113326 0.232944
1 2 0.109734 0.0875148 0.238539
ITEM: TIMESTEP
101600
ITEM: NUMBER OF ATOMS
5
ITEM: BOX BOUNDS pp pp pp
0.0000000000000000e+00 1.5500000000000000e+01
0.0000000000000000e+00 1.5500000000000000e+01
0.0000000000000000e+00 1.5500000000000000e+01
ITEM: ATOMS id type xs ys zs
3 2 0.403891 0.270303 0.297526
4 2 0.391725 0.344895 0.308036
5 3 0.345542 0.301762 0.268542
2 2 0.181133 0.12811 0.227324
1 2 0.141496 0.0714905 0.250793
ITEM: TIMESTEP
101700
ITEM: NUMBER OF ATOMS
5
ITEM: BOX BOUNDS pp pp pp
0.0000000000000000e+00 1.5500000000000000e+01
0.0000000000000000e+00 1.5500000000000000e+01
0.0000000000000000e+00 1.5500000000000000e+01
ITEM: ATOMS id type xs ys zs
3 2 0.434166 0.297707 0.284915
4 2 0.373254 0.318559 0.325059
5 3 0.366168 0.293572 0.259575
2 2 0.175184 0.130333 0.227636
1 2 0.190017 0.0683459 0.258874
ITEM: TIMESTEP
101800
ITEM: NUMBER OF ATOMS
5
ITEM: BOX BOUNDS pp pp pp
0.0000000000000000e+00 1.5500000000000000e+01
0.0000000000000000e+00 1.5500000000000000e+01
0.0000000000000000e+00 1.5500000000000000e+01
ITEM: ATOMS id type xs ys zs
3 2 0.423066 0.33515 0.293955
4 2 0.390686 0.280676 0.321243
5 3 0.395975 0.285387 0.249073
2 2 0.175523 0.112601 0.238626
1 2 0.238467 0.0855944 0.25751
ITEM: TIMESTEP
101900
ITEM: NUMBER OF ATOMS
5
ITEM: BOX BOUNDS pp pp pp
0.0000000000000000e+00 1.5500000000000000e+01
0.0000000000000000e+00 1.5500000000000000e+01
0.0000000000000000e+00 1.5500000000000000e+01
ITEM: ATOMS id type xs ys zs
3 2 0.388885 0.330976 0.296965
4 2 0.422096 0.26271 0.312749
5 3 0.432575 0.298549 0.249375
2 2 0.196624 0.0858257 0.255935
1 2 0.264642 0.11265 0.249534
ITEM: TIMESTEP
102000
ITEM: NUMBER OF ATOMS
5
ITEM: BOX BOUNDS pp pp pp
0.0000000000000000e+00 1.5500000000000000e+01
0.0000000000000000e+00 1.5500000000000000e+01
0.0000000000000000e+00 1.5500000000000000e+01
ITEM: ATOMS id type xs ys zs
3 2 0.382618 0.292882 0.281585
4 2 0.445201 0.263402 0.304295
5 3 0.44635 0.326379 0.268078
2 2 0.239073 0.0681266 0.270868
1 2 0.267471 0.131781 0.243616
ITEM: TIMESTEP
102100
ITEM: NUMBER OF ATOMS
5
ITEM: BOX BOUNDS pp pp pp
0.0000000000000000e+00 1.5500000000000000e+01
0.0000000000000000e+00 1.5500000000000000e+01
0.0000000000000000e+00 1.5500000000000000e+01
ITEM: ATOMS id type xs ys zs
3 2 0.405852 0.271063 0.257353
4 2 0.468029 0.270861 0.294703
5 3 0.428312 0.329431 0.296479
2 2 0.28998 0.070632 0.277194
1 2 0.262336 0.132669 0.24649
ITEM: TIMESTEP
102200
ITEM: NUMBER OF ATOMS
5
ITEM: BOX BOUNDS pp pp pp
0.0000000000000000e+00 1.5500000000000000e+01
0.0000000000000000e+00 1.5500000000000000e+01
0.0000000000000000e+00 1.5500000000000000e+01
ITEM: ATOMS id type xs ys zs
3 2 0.433379 0.271926 0.243646
4 2 0.485915 0.294801 0.289975
5 3 0.410283 0.290234 0.308982
2 2 0.334922 0.0928895 0.274504
1 2 0.267844 0.116458 0.259095
ITEM: TIMESTEP
102300
ITEM: NUMBER OF ATOMS
5
ITEM: BOX BOUNDS pp pp pp
0.0000000000000000e+00 1.5500000000000000e+01
0.0000000000000000e+00 1.5500000000000000e+01
0.0000000000000000e+00 1.5500000000000000e+01
ITEM: ATOMS id type xs ys zs
3 2 0.459213 0.278224 0.23603
4 2 0.457249 0.31369 0.29973
5 3 0.442638 0.243031 0.299432
2 2 0.362537 0.129017 0.266875
1 2 0.303451 0.0923993 0.278883
ITEM: TIMESTEP
102400
ITEM: NUMBER OF ATOMS
5
ITEM: BOX BOUNDS pp pp pp
0.0000000000000000e+00 1.5500000000000000e+01
0.0000000000000000e+00 1.5500000000000000e+01
0.0000000000000000e+00 1.5500000000000000e+01
ITEM: ATOMS id type xs ys zs
3 2 0.474774 0.287042 0.244066
4 2 0.423042 0.280771 0.29558
5 3 0.473381 0.230622 0.285877
2 2 0.372751 0.158806 0.268881
1 2 0.362045 0.0904436 0.290686
ITEM: TIMESTEP
102500
ITEM: NUMBER OF ATOMS
5
ITEM: BOX BOUNDS pp pp pp
0.0000000000000000e+00 1.5500000000000000e+01
0.0000000000000000e+00 1.5500000000000000e+01
0.0000000000000000e+00 1.5500000000000000e+01
ITEM: ATOMS id type xs ys zs
3 2 0.46727 0.285221 0.268513
4 2 0.403542 0.260001 0.271296
5 3 0.474019 0.207756 0.267904
2 2 0.406692 0.187824 0.288832
1 2 0.405405 0.10142 0.291152
ITEM: TIMESTEP
102600
ITEM: NUMBER OF ATOMS
5
ITEM: BOX BOUNDS pp pp pp
0.0000000000000000e+00 1.5500000000000000e+01
0.0000000000000000e+00 1.5500000000000000e+01
0.0000000000000000e+00 1.5500000000000000e+01
ITEM: ATOMS id type xs ys zs
3 2 0.464099 0.264122 0.284829
4 2 0.4038 0.244889 0.256679
5 3 0.460832 0.194931 0.257106
2 2 0.411528 0.199308 0.310915
1 2 0.444412 0.135995 0.279588
ITEM: TIMESTEP
102700
ITEM: NUMBER OF ATOMS
5
ITEM: BOX BOUNDS pp pp pp
0.0000000000000000e+00 1.5500000000000000e+01
0.0000000000000000e+00 1.5500000000000000e+01
0.0000000000000000e+00 1.5500000000000000e+01
ITEM: ATOMS id type xs ys zs
3 2 0.454725 0.270661 0.284121
4 2 0.402733 0.224103 0.253693
5 3 0.470911 0.203879 0.261494
2 2 0.43667 0.195118 0.32178
1 2 0.432744 0.144079 0.268701
ITEM: TIMESTEP
102800
ITEM: NUMBER OF ATOMS
5
ITEM: BOX BOUNDS pp pp pp
0.0000000000000000e+00 1.5500000000000000e+01
0.0000000000000000e+00 1.5500000000000000e+01
0.0000000000000000e+00 1.5500000000000000e+01
ITEM: ATOMS id type xs ys zs
3 2 0.445502 0.266699 0.287078
4 2 0.407969 0.217782 0.257871
5 3 0.479911 0.203307 0.259865
2 2 0.440389 0.198966 0.319301
1 2 0.42978 0.150467 0.26597
ITEM: TIMESTEP
102900
ITEM: NUMBER OF ATOMS
5
ITEM: BOX BOUNDS pp pp pp
0.0000000000000000e+00 1.5500000000000000e+01
0.0000000000000000e+00 1.5500000000000000e+01
0.0000000000000000e+00 1.5500000000000000e+01
ITEM: ATOMS id type xs ys zs
3 2 0.451323 0.264244 0.288429
4 2 0.407851 0.214453 0.25779
5 3 0.477332 0.209151 0.256823
2 2 0.435933 0.199363 0.320091
1 2 0.434053 0.149695 0.267101
ITEM: TIMESTEP
103000
ITEM: NUMBER OF ATOMS
5
ITEM: BOX BOUNDS pp pp pp
0.0000000000000000e+00 1.5500000000000000e+01
0.0000000000000000e+00 1.5500000000000000e+01
0.0000000000000000e+00 1.5500000000000000e+01
ITEM: ATOMS id type xs ys zs
3 2 0.445973 0.264101 0.288588
4 2 0.40695 0.216485 0.256027
5 3 0.477541 0.206271 0.259241
2 2 0.443136 0.199661 0.320432
1 2 0.434907 0.150172 0.26605
ITEM: TIMESTEP
103100
ITEM: NUMBER OF ATOMS
5
ITEM: BOX BOUNDS pp pp pp
0.0000000000000000e+00 1.5500000000000000e+01
0.0000000000000000e+00 1.5500000000000000e+01
0.0000000000000000e+00 1.5500000000000000e+01
ITEM: ATOMS id type xs ys zs
3 2 0.449023 0.26541 0.290819
4 2 0.404389 0.217012 0.256344
5 3 0.475452 0.20645 0.256068
2 2 0.440484 0.199692 0.318821
1 2 0.441086 0.147919 0.268384
ITEM: TIMESTEP
103200
ITEM: NUMBER OF ATOMS
5
ITEM: BOX BOUNDS pp pp pp
0.0000000000000000e+00 1.5500000000000000e+01
0.0000000000000000e+00 1.5500000000000000e+01
0.0000000000000000e+00 1.5500000000000000e+01
ITEM: ATOMS id type xs ys zs
3 2 0.444868 0.266019 0.287275
4 2 0.407128 0.211848 0.261028
5 3 0.482087 0.212905 0.259602
2 2 0.444958 0.198828 0.317249
1 2 0.433969 0.146607 0.265414
ITEM: TIMESTEP
103300
ITEM: NUMBER OF ATOMS
5
ITEM: BOX BOUNDS pp pp pp
0.0000000000000000e+00 1.5500000000000000e+01
0.0000000000000000e+00 1.5500000000000000e+01
0.0000000000000000e+00 1.5500000000000000e+01
ITEM: ATOMS id type xs ys zs
3 2 0.442777 0.265885 0.291526
4 2 0.407736 0.213246 0.259271
5 3 0.48 0.205818 0.253439
2 2 0.445048 0.201331 0.320294
1 2 0.441142 0.149531 0.266227
ITEM: TIMESTEP
103400
ITEM: NUMBER OF ATOMS
5
ITEM: BOX BOUNDS pp pp pp
0.0000000000000000e+00 1.5500000000000000e+01
0.0000000000000000e+00 1.5500000000000000e+01
0.0000000000000000e+00 1.5500000000000000e+01
ITEM: ATOMS id type xs ys zs
3 2 0.447267 0.26576 0.291428
4 2 0.405569 0.208815 0.254501
5 3 0.47638 0.211321 0.254659
2 2 0.449056 0.198744 0.321784
1 2 0.442632 0.150719 0.268601
ITEM: TIMESTEP
103500
ITEM: NUMBER OF ATOMS
5
ITEM: BOX BOUNDS pp pp pp
0.0000000000000000e+00 1.5500000000000000e+01
0.0000000000000000e+00 1.5500000000000000e+01
0.0000000000000000e+00 1.5500000000000000e+01
ITEM: ATOMS id type xs ys zs
3 2 0.444439 0.263915 0.288798
4 2 0.405128 0.209971 0.263445
5 3 0.480212 0.210577 0.253761
2 2 0.446859 0.200206 0.318341
1 2 0.447672 0.150325 0.266801
ITEM: TIMESTEP
103600
ITEM: NUMBER OF ATOMS
5
ITEM: BOX BOUNDS pp pp pp
0.0000000000000000e+00 1.5500000000000000e+01
0.0000000000000000e+00 1.5500000000000000e+01
0.0000000000000000e+00 1.5500000000000000e+01
ITEM: ATOMS id type xs ys zs
3 2 0.442271 0.266706 0.289812
4 2 0.40893 0.20788 0.261368
5 3 0.478804 0.214232 0.25428
2 2 0.451037 0.198144 0.317382
1 2 0.445637 0.147778 0.268426
ITEM: TIMESTEP
103700
ITEM: NUMBER OF ATOMS
5
ITEM: BOX BOUNDS pp pp pp
0.0000000000000000e+00 1.5500000000000000e+01
0.0000000000000000e+00 1.5500000000000000e+01
0.0000000000000000e+00 1.5500000000000000e+01
ITEM: ATOMS id type xs ys zs
3 2 0.443342 0.263354 0.289271
4 2 0.408009 0.206949 0.261479
5 3 0.479196 0.215076 0.253478
2 2 0.451157 0.200499 0.31972
1 2 0.44712 0.148632 0.26743
ITEM: TIMESTEP
103800
ITEM: NUMBER OF ATOMS
5
ITEM: BOX BOUNDS pp pp pp
0.0000000000000000e+00 1.5500000000000000e+01
0.0000000000000000e+00 1.5500000000000000e+01
0.0000000000000000e+00 1.5500000000000000e+01
ITEM: ATOMS id type xs ys zs
3 2 0.438812 0.264515 0.29063
4 2 0.407091 0.206677 0.260868
5 3 0.480629 0.210542 0.254431
2 2 0.454251 0.20081 0.319146
1 2 0.450641 0.151688 0.266435
ITEM: TIMESTEP
103900
ITEM: NUMBER OF ATOMS
5
ITEM: BOX BOUNDS pp pp pp
0.0000000000000000e+00 1.5500000000000000e+01
0.0000000000000000e+00 1.5500000000000000e+01
0.0000000000000000e+00 1.5500000000000000e+01
ITEM: ATOMS id type xs ys zs
3 2 0.438259 0.265041 0.28932
4 2 0.408523 0.202953 0.260615
5 3 0.482872 0.222094 0.25289
2 2 0.45546 0.197777 0.318562
1 2 0.450672 0.145898 0.270348
ITEM: TIMESTEP
104000
ITEM: NUMBER OF ATOMS
5
ITEM: BOX BOUNDS pp pp pp
0.0000000000000000e+00 1.5500000000000000e+01
0.0000000000000000e+00 1.5500000000000000e+01
0.0000000000000000e+00 1.5500000000000000e+01
ITEM: ATOMS id type xs ys zs
3 2 0.435982 0.262662 0.292842
4 2 0.413512 0.201445 0.260086
5 3 0.478582 0.220067 0.250257
2 2 0.459101 0.20063 0.31942
1 2 0.453832 0.148398 0.269397
ITEM: TIMESTEP
104100
ITEM: NUMBER OF ATOMS
5
ITEM: BOX BOUNDS pp pp pp
0.0000000000000000e+00 1.5500000000000000e+01
0.0000000000000000e+00 1.5500000000000000e+01
0.0000000000000000e+00 1.5500000000000000e+01
ITEM: ATOMS id type xs ys zs
3 2 0.433789 0.265385 0.293485
4 2 0.410457 0.203044 0.266191
5 3 0.479169 0.217736 0.250655
2 2 0.458635 0.201253 0.316772
1 2 0.462967 0.145356 0.265104
ITEM: TIMESTEP
104200
ITEM: NUMBER OF ATOMS
5
ITEM: BOX BOUNDS pp pp pp
0.0000000000000000e+00 1.5500000000000000e+01
0.0000000000000000e+00 1.5500000000000000e+01
0.0000000000000000e+00 1.5500000000000000e+01
ITEM: ATOMS id type xs ys zs
3 2 0.434888 0.261373 0.29239
4 2 0.408973 0.198239 0.266882
5 3 0.481527 0.221791 0.248327
2 2 0.458587 0.199056 0.318532
1 2 0.463843 0.152015 0.266218
ITEM: TIMESTEP
104300
ITEM: NUMBER OF ATOMS
5
ITEM: BOX BOUNDS pp pp pp
0.0000000000000000e+00 1.5500000000000000e+01
0.0000000000000000e+00 1.5500000000000000e+01
0.0000000000000000e+00 1.5500000000000000e+01
ITEM: ATOMS id type xs ys zs
3 2 0.436041 0.259758 0.290647
4 2 0.410913 0.198469 0.265525
5 3 0.47697 0.22258 0.251709
2 2 0.460901 0.199659 0.318397
1 2 0.465305 0.15176 0.26619
ITEM: TIMESTEP
104400
ITEM: NUMBER OF ATOMS
5
ITEM: BOX BOUNDS pp pp pp
0.0000000000000000e+00 1.5500000000000000e+01
0.0000000000000000e+00 1.5500000000000000e+01
0.0000000000000000e+00 1.5500000000000000e+01
ITEM: ATOMS id type xs ys zs
3 2 0.429405 0.263528 0.294525
4 2 0.413162 0.198029 0.267059
5 3 0.480963 0.217873 0.249731
2 2 0.461872 0.20143 0.316169
1 2 0.46716 0.151104 0.265108
ITEM: TIMESTEP
104500
ITEM: NUMBER OF ATOMS
5
ITEM: BOX BOUNDS pp pp pp
0.0000000000000000e+00 1.5500000000000000e+01
0.0000000000000000e+00 1.5500000000000000e+01
0.0000000000000000e+00 1.5500000000000000e+01
ITEM: ATOMS id type xs ys zs
3 2 0.433963 0.26394 0.293208
4 2 0.412228 0.194531 0.263428
5 3 0.474137 0.225258 0.249386
2 2 0.462968 0.197712 0.319727
1 2 0.473082 0.150113 0.267039
ITEM: TIMESTEP
104600
ITEM: NUMBER OF ATOMS
5
ITEM: BOX BOUNDS pp pp pp
0.0000000000000000e+00 1.5500000000000000e+01
0.0000000000000000e+00 1.5500000000000000e+01
0.0000000000000000e+00 1.5500000000000000e+01
ITEM: ATOMS id type xs ys zs
3 2 0.429419 0.255754 0.292285
4 2 0.412644 0.192352 0.26793
5 3 0.480177 0.222722 0.252333
2 2 0.464431 0.203854 0.319431
1 2 0.474395 0.15637 0.261049
ITEM: TIMESTEP
104700
ITEM: NUMBER OF ATOMS
5
ITEM: BOX BOUNDS pp pp pp
0.0000000000000000e+00 1.5500000000000000e+01
0.0000000000000000e+00 1.5500000000000000e+01
0.0000000000000000e+00 1.5500000000000000e+01
ITEM: ATOMS id type xs ys zs
3 2 0.427884 0.258341 0.292993
4 2 0.41568 0.193109 0.267982
5 3 0.477317 0.228686 0.250652
2 2 0.466445 0.199826 0.316203
1 2 0.477529 0.150685 0.265391
ITEM: TIMESTEP
104800
ITEM: NUMBER OF ATOMS
5
ITEM: BOX BOUNDS pp pp pp
0.0000000000000000e+00 1.5500000000000000e+01
0.0000000000000000e+00 1.5500000000000000e+01
0.0000000000000000e+00 1.5500000000000000e+01
ITEM: ATOMS id type xs ys zs
3 2 0.428083 0.260242 0.291451
4 2 0.414954 0.191904 0.269459
5 3 0.476379 0.223261 0.252054
2 2 0.465153 0.201328 0.319497
1 2 0.483249 0.153594 0.260911
ITEM: TIMESTEP
104900
ITEM: NUMBER OF ATOMS
5
ITEM: BOX BOUNDS pp pp pp
0.0000000000000000e+00 1.5500000000000000e+01
0.0000000000000000e+00 1.5500000000000000e+01
0.0000000000000000e+00 1.5500000000000000e+01
ITEM: ATOMS id type xs ys zs
3 2 0.42493 0.255679 0.293623
4 2 0.416636 0.189077 0.266871
5 3 0.480177 0.22596 0.25241
2 2 0.469512 0.203976 0.316475
1 2 0.479328 0.15534 0.264136
ITEM: TIMESTEP
105000
ITEM: NUMBER OF ATOMS
5
ITEM: BOX BOUNDS pp pp pp
0.0000000000000000e+00 1.5500000000000000e+01
0.0000000000000000e+00 1.5500000000000000e+01
0.0000000000000000e+00 1.5500000000000000e+01
ITEM: ATOMS id type xs ys zs
3 2 0.430152 0.255824 0.293559
4 2 0.418358 0.187101 0.268825
5 3 0.475117 0.228236 0.245941
2 2 0.464416 0.200296 0.320993
1 2 0.485425 0.158265 0.264345
ITEM: TIMESTEP
105100
ITEM: NUMBER OF ATOMS
5
ITEM: BOX BOUNDS pp pp pp
0.0000000000000000e+00 1.5500000000000000e+01
0.0000000000000000e+00 1.5500000000000000e+01
0.0000000000000000e+00 1.5500000000000000e+01
ITEM: ATOMS id type xs ys zs
3 2 0.424301 0.253911 0.291067
4 2 0.418072 0.189306 0.269299
5 3 0.478148 0.226513 0.254654
2 2 0.469098 0.203519 0.318685
1 2 0.48718 0.156116 0.260127
ITEM: TIMESTEP
105200
ITEM: NUMBER OF ATOMS
5
ITEM: BOX BOUNDS pp pp pp
0.0000000000000000e+00 1.5500000000000000e+01
0.0000000000000000e+00 1.5500000000000000e+01
0.0000000000000000e+00 1.5500000000000000e+01
ITEM: ATOMS id type xs ys zs
3 2 0.425536 0.250238 0.295929
4 2 0.424764 0.185974 0.261929
5 3 0.476075 0.234547 0.248334
2 2 0.47047 0.202212 0.320042
1 2 0.48524 0.155827 0.267869
ITEM: TIMESTEP
105300
ITEM: NUMBER OF ATOMS
5
ITEM: BOX BOUNDS pp pp pp
0.0000000000000000e+00 1.5500000000000000e+01
0.0000000000000000e+00 1.5500000000000000e+01
0.0000000000000000e+00 1.5500000000000000e+01
ITEM: ATOMS id type xs ys zs
3 2 0.422012 0.252071 0.289065
4 2 0.420916 0.179777 0.273722
5 3 0.483829 0.234495 0.253753
2 2 0.468918 0.198868 0.319031
1 2 0.492228 0.162963 0.258831
ITEM: TIMESTEP
105400
ITEM: NUMBER OF ATOMS
5
ITEM: BOX BOUNDS pp pp pp
0.0000000000000000e+00 1.5500000000000000e+01
0.0000000000000000e+00 1.5500000000000000e+01
0.0000000000000000e+00 1.5500000000000000e+01
ITEM: ATOMS id type xs ys zs
3 2 0.421156 0.2473 0.293792
4 2 0.423006 0.182703 0.265725
5 3 0.483168 0.232033 0.251945
2 2 0.470221 0.201203 0.320786
1 2 0.494249 0.164517 0.262352
ITEM: TIMESTEP
105500
ITEM: NUMBER OF ATOMS
5
ITEM: BOX BOUNDS pp pp pp
0.0000000000000000e+00 1.5500000000000000e+01
0.0000000000000000e+00 1.5500000000000000e+01
0.0000000000000000e+00 1.5500000000000000e+01
ITEM: ATOMS id type xs ys zs
3 2 0.423129 0.249582 0.295486
4 2 0.426066 0.181338 0.263096
5 3 0.474535 0.234196 0.252709
2 2 0.470707 0.201705 0.317633
1 2 0.500468 0.160602 0.265836
ITEM: TIMESTEP
105600
ITEM: NUMBER OF ATOMS
5
ITEM: BOX BOUNDS pp pp pp
0.0000000000000000e+00 1.5500000000000000e+01
0.0000000000000000e+00 1.5500000000000000e+01
0.0000000000000000e+00 1.5500000000000000e+01
ITEM: ATOMS id type xs ys zs
3 2 0.417031 0.245839 0.29446
4 2 0.428797 0.182677 0.265886
5 3 0.481659 0.231924 0.253264
2 2 0.473204 0.206068 0.320468
1 2 0.49692 0.160625 0.26082
ITEM: TIMESTEP
105700
ITEM: NUMBER OF ATOMS
5
ITEM: BOX BOUNDS pp pp pp
0.0000000000000000e+00 1.5500000000000000e+01
0.0000000000000000e+00 1.5500000000000000e+01
0.0000000000000000e+00 1.5500000000000000e+01
ITEM: ATOMS id type xs ys zs
3 2 0.422199 0.247262 0.293262
4 2 0.426926 0.179921 0.265677
5 3 0.476821 0.232427 0.250584
2 2 0.47318 0.199579 0.320321
1 2 0.500979 0.167678 0.265182
ITEM: TIMESTEP
105800
ITEM: NUMBER OF ATOMS
5
ITEM: BOX BOUNDS pp pp pp
0.0000000000000000e+00 1.5500000000000000e+01
0.0000000000000000e+00 1.5500000000000000e+01
0.0000000000000000e+00 1.5500000000000000e+01
ITEM: ATOMS id type xs ys zs
3 2 0.418842 0.244589 0.292954
4 2 0.430993 0.178687 0.264681
5 3 0.476407 0.236297 0.256139
2 2 0.476461 0.204096 0.317657
1 2 0.500046 0.162912 0.26373
ITEM: TIMESTEP
105900
ITEM: NUMBER OF ATOMS
5
ITEM: BOX BOUNDS pp pp pp
0.0000000000000000e+00 1.5500000000000000e+01
0.0000000000000000e+00 1.5500000000000000e+01
0.0000000000000000e+00 1.5500000000000000e+01
ITEM: ATOMS id type xs ys zs
3 2 0.420314 0.245784 0.295319
4 2 0.430112 0.178681 0.266478
5 3 0.474962 0.232767 0.248639
2 2 0.471173 0.200179 0.320983
1 2 0.509737 0.168791 0.263923
ITEM: TIMESTEP
106000
ITEM: NUMBER OF ATOMS
5
ITEM: BOX BOUNDS pp pp pp
0.0000000000000000e+00 1.5500000000000000e+01
0.0000000000000000e+00 1.5500000000000000e+01
0.0000000000000000e+00 1.5500000000000000e+01
ITEM: ATOMS id type xs ys zs
3 2 0.41866 0.243237 0.292601
4 2 0.432525 0.17582 0.268812
5 3 0.475718 0.236956 0.25235
2 2 0.475955 0.200201 0.317388
1 2 0.507907 0.169507 0.264421
ITEM: TIMESTEP
106100
ITEM: NUMBER OF ATOMS
5
ITEM: BOX BOUNDS pp pp pp
0.0000000000000000e+00 1.5500000000000000e+01
0.0000000000000000e+00 1.5500000000000000e+01
0.0000000000000000e+00 1.5500000000000000e+01
ITEM: ATOMS id type xs ys zs
3 2 0.417032 0.239448 0.294893
4 2 0.435865 0.175783 0.267856
5 3 0.477838 0.23473 0.252279
2 2 0.477206 0.207816 0.320591
1 2 0.506635 0.167536 0.260147
ITEM: TIMESTEP
106200
ITEM: NUMBER OF ATOMS
5
ITEM: BOX BOUNDS pp pp pp
0.0000000000000000e+00 1.5500000000000000e+01
0.0000000000000000e+00 1.5500000000000000e+01
0.0000000000000000e+00 1.5500000000000000e+01
ITEM: ATOMS id type xs ys zs
3 2 0.420242 0.241221 0.296376
4 2 0.435682 0.175319 0.267781
5 3 0.472529 0.232592 0.250389
2 2 0.477932 0.205041 0.317537
1 2 0.510576 0.170885 0.263807
ITEM: TIMESTEP
106300
ITEM: NUMBER OF ATOMS
5
ITEM: BOX BOUNDS pp pp pp
0.0000000000000000e+00 1.5500000000000000e+01
0.0000000000000000e+00 1.5500000000000000e+01
0.0000000000000000e+00 1.5500000000000000e+01
ITEM: ATOMS id type xs ys zs
3 2 0.416807 0.236908 0.294431
4 2 0.437319 0.17409 0.269649
5 3 0.475707 0.235116 0.252631
2 2 0.482338 0.20926 0.317764
1 2 0.506993 0.169448 0.261526
ITEM: TIMESTEP
106400
ITEM: NUMBER OF ATOMS
5
ITEM: BOX BOUNDS pp pp pp
0.0000000000000000e+00 1.5500000000000000e+01
0.0000000000000000e+00 1.5500000000000000e+01
0.0000000000000000e+00 1.5500000000000000e+01
ITEM: ATOMS id type xs ys zs
3 2 0.420316 0.241945 0.296738
4 2 0.435248 0.173987 0.270948
5 3 0.471045 0.229508 0.246886
2 2 0.47828 0.20183 0.319444
1 2 0.516933 0.177266 0.262121
ITEM: TIMESTEP
106500
ITEM: NUMBER OF ATOMS
5
ITEM: BOX BOUNDS pp pp pp
0.0000000000000000e+00 1.5500000000000000e+01
0.0000000000000000e+00 1.5500000000000000e+01
0.0000000000000000e+00 1.5500000000000000e+01
ITEM: ATOMS id type xs ys zs
3 2 0.421207 0.236072 0.297996
4 2 0.440835 0.17236 0.268651
5 3 0.472143 0.233516 0.246978
2 2 0.47944 0.20905 0.320577
1 2 0.511728 0.17316 0.262117
ITEM: TIMESTEP
106600
ITEM: NUMBER OF ATOMS
5
ITEM: BOX BOUNDS pp pp pp
0.0000000000000000e+00 1.5500000000000000e+01
0.0000000000000000e+00 1.5500000000000000e+01
0.0000000000000000e+00 1.5500000000000000e+01
ITEM: ATOMS id type xs ys zs
3 2 0.415913 0.23372 0.298228
4 2 0.4412 0.17383 0.271327
5 3 0.470517 0.232957 0.248791
2 2 0.48531 0.209382 0.315539
1 2 0.51647 0.173833 0.262641
ITEM: TIMESTEP
106700
ITEM: NUMBER OF ATOMS
5
ITEM: BOX BOUNDS pp pp pp
0.0000000000000000e+00 1.5500000000000000e+01
0.0000000000000000e+00 1.5500000000000000e+01
0.0000000000000000e+00 1.5500000000000000e+01
ITEM: ATOMS id type xs ys zs
3 2 0.416854 0.233779 0.296218
4 2 0.445552 0.167906 0.273698
5 3 0.471756 0.233886 0.249156
2 2 0.482515 0.211247 0.319715
1 2 0.515998 0.176554 0.257906
ITEM: TIMESTEP
106800
ITEM: NUMBER OF ATOMS
5
ITEM: BOX BOUNDS pp pp pp
0.0000000000000000e+00 1.5500000000000000e+01
0.0000000000000000e+00 1.5500000000000000e+01
0.0000000000000000e+00 1.5500000000000000e+01
ITEM: ATOMS id type xs ys zs
3 2 0.419731 0.231992 0.297757
4 2 0.445323 0.167222 0.271421
5 3 0.470915 0.234208 0.246431
2 2 0.483861 0.210331 0.318371
1 2 0.514562 0.179435 0.262801
ITEM: TIMESTEP
106900
ITEM: NUMBER OF ATOMS
5
ITEM: BOX BOUNDS pp pp pp
0.0000000000000000e+00 1.5500000000000000e+01
0.0000000000000000e+00 1.5500000000000000e+01
0.0000000000000000e+00 1.5500000000000000e+01
ITEM: ATOMS id type xs ys zs
3 2 0.414733 0.230111 0.297513
4 2 0.44362 0.1696 0.273784
5 3 0.471629 0.234509 0.250005
2 2 0.485281 0.211169 0.314525
1 2 0.520935 0.177606 0.261046
ITEM: TIMESTEP
107000
ITEM: NUMBER OF ATOMS
5
ITEM: BOX BOUNDS pp pp pp
0.0000000000000000e+00 1.5500000000000000e+01
0.0000000000000000e+00 1.5500000000000000e+01
0.0000000000000000e+00 1.5500000000000000e+01
ITEM: ATOMS id type xs ys zs
3 2 0.41555 0.231202 0.298519
4 2 0.447743 0.165653 0.269931
5 3 0.471655 0.230807 0.247973
2 2 0.484373 0.213132 0.319293
1 2 0.519563 0.181913 0.261294
ITEM: TIMESTEP
107100
ITEM: NUMBER OF ATOMS
5
ITEM: BOX BOUNDS pp pp pp
0.0000000000000000e+00 1.5500000000000000e+01
0.0000000000000000e+00 1.5500000000000000e+01
0.0000000000000000e+00 1.5500000000000000e+01
ITEM: ATOMS id type xs ys zs
3 2 0.417628 0.226028 0.296038
4 2 0.449954 0.166725 0.272834
5 3 0.469986 0.234515 0.247796
2 2 0.485684 0.216525 0.319903
1 2 0.519232 0.178527 0.260625
ITEM: TIMESTEP
107200
ITEM: NUMBER OF ATOMS
5
ITEM: BOX BOUNDS pp pp pp
0.0000000000000000e+00 1.5500000000000000e+01
0.0000000000000000e+00 1.5500000000000000e+01
0.0000000000000000e+00 1.5500000000000000e+01
ITEM: ATOMS id type xs ys zs
3 2 0.417282 0.225381 0.297929
4 2 0.452454 0.167964 0.273749
5 3 0.470523 0.231632 0.245792
2 2 0.485352 0.214924 0.317122
1 2 0.520772 0.182002 0.262803
ITEM: TIMESTEP
107300
ITEM: NUMBER OF ATOMS
5
ITEM: BOX BOUNDS pp pp pp
0.0000000000000000e+00 1.5500000000000000e+01
0.0000000000000000e+00 1.5500000000000000e+01
0.0000000000000000e+00 1.5500000000000000e+01
ITEM: ATOMS id type xs ys zs
3 2 0.416197 0.225292 0.298553
4 2 0.45343 0.166322 0.275501
5 3 0.473179 0.230671 0.245655
2 2 0.483284 0.215175 0.317097
1 2 0.523522 0.184095 0.260754
ITEM: TIMESTEP
107400
ITEM: NUMBER OF ATOMS
5
ITEM: BOX BOUNDS pp pp pp
0.0000000000000000e+00 1.5500000000000000e+01
0.0000000000000000e+00 1.5500000000000000e+01
0.0000000000000000e+00 1.5500000000000000e+01
ITEM: ATOMS id type xs ys zs
3 2 0.416424 0.224229 0.297319
4 2 0.454109 0.166421 0.273235
5 3 0.469339 0.230686 0.248795
2 2 0.487563 0.216518 0.314711
1 2 0.524175 0.183488 0.263602
ITEM: TIMESTEP
107500
ITEM: NUMBER OF ATOMS
5
ITEM: BOX BOUNDS pp pp pp
0.0000000000000000e+00 1.5500000000000000e+01
0.0000000000000000e+00 1.5500000000000000e+01
0.0000000000000000e+00 1.5500000000000000e+01
ITEM: ATOMS id type xs ys zs
3 2 0.419157 0.223234 0.294286
4 2 0.454217 0.163709 0.275989
5 3 0.469665 0.231325 0.247525
2 2 0.487764 0.216851 0.317253
1 2 0.522668 0.186023 0.262705
ITEM: TIMESTEP
107600
ITEM: NUMBER OF ATOMS
5
ITEM: BOX BOUNDS pp pp pp
0.0000000000000000e+00 1.5500000000000000e+01