LAMMPS (2 Aug 2023 - Update 2)
# VARIABLES
variable fname index InitialFile.txt
variable simname index InitialFile
variable lj_epsilon equal 1.0
variable lj_sigma equal 2.0

# Initialization
units		real
boundary	    p p p
atom_style	bond
#log 		log.${simname}.txt
read_data	InitialFile.txt
Reading data file ...
  orthogonal box = (0 0 0) to (15.5 15.5 15.5)
  1 by 1 by 1 MPI processor grid
  reading atom labelmap ...
WARNING: Atom style in data file atomic differs from currently defined atom style bond (src/src/read_data.cpp:621)
  reading atoms ...
  5 atoms
Finding 1-2 1-3 1-4 neighbors ...
  special bond factors lj:    0        0        0       
  special bond factors coul:  0        0        0       
     0 = max # of 1-2 neighbors
     0 = max # of 1-3 neighbors
     0 = max # of 1-4 neighbors
     1 = max # of special neighbors
  special bonds CPU = 0.001 seconds
  read_data CPU = 0.003 seconds

# Dreiding potential information
neighbor	2.0 bin
neigh_modify every 1 delay 0 check yes

pair_style	lj/cut 10.5
pair_coeff	* * 10 1.0 10.5

compute csym all centro/atom fcc
compute peratom all pe/atom


#####################################################
# Equilibration (Brownian dynamics at 300 K)

velocity 	all create 300.0 1231
fix		1 all nve/limit 0.05
fix 2 all brownian 30.0 12908410 gamma_t 3.0 rng gaussian # Compute a correct 300K simulation, check the value for gamma_t
thermo_style	custom step temp
thermo          10000
timestep	1
run		100000
Generated 0 of 3 mixed pair_coeff terms from geometric mixing rule
WARNING: One or more atoms are time integrated more than once (src/src/modify.cpp:289)
Neighbor list info ...
  update: every = 1 steps, delay = 0 steps, check = yes
  max neighbors/atom: 2000, page size: 100000
  master list distance cutoff = 12.5
  ghost atom cutoff = 12.5
  binsize = 6.25, bins = 3 3 3
  2 neighbor lists, perpetual/occasional/extra = 1 1 0
  (1) pair lj/cut, perpetual
      attributes: half, newton on
      pair build: half/bin/newton
      stencil: half/bin/3d
      bin: standard
  (2) compute centro/atom, occasional
      attributes: full, newton on
      pair build: full/bin
      stencil: full/bin/3d
      bin: standard
Per MPI rank memory allocation (min/avg/max) = 4.694 | 4.694 | 4.694 Mbytes
   Step          Temp     
         0   300          
     10000   486.24444    
     20000   427.75871    
     30000   339.96558    
     40000   426.98687    
     50000   349.94314    
     60000   520.09548    
     70000   188.15718    
     80000   394.25296    
     90000   391.61046    
    100000   263.77866    
Loop time of 0.191188 on 1 procs for 100000 steps with 5 atoms

Performance: 45191.097 ns/day, 0.001 hours/ns, 523045.100 timesteps/s, 2.615 Matom-step/s
89.8% CPU use with 1 MPI tasks x no OpenMP threads

MPI task timing breakdown:
Section |  min time  |  avg time  |  max time  |%varavg| %total
---------------------------------------------------------------
Pair    | 0.030271   | 0.030271   | 0.030271   |   0.0 | 15.83
Bond    | 0.0059038  | 0.0059038  | 0.0059038  |   0.0 |  3.09
Neigh   | 0.00022195 | 0.00022195 | 0.00022195 |   0.0 |  0.12
Comm    | 0.050899   | 0.050899   | 0.050899   |   0.0 | 26.62
Output  | 0.00023692 | 0.00023692 | 0.00023692 |   0.0 |  0.12
Modify  | 0.06929    | 0.06929    | 0.06929    |   0.0 | 36.24
Other   |            | 0.03437    |            |       | 17.97

Nlocal:              5 ave           5 max           5 min
Histogram: 1 0 0 0 0 0 0 0 0 0
Nghost:             83 ave          83 max          83 min
Histogram: 1 0 0 0 0 0 0 0 0 0
Neighs:             16 ave          16 max          16 min
Histogram: 1 0 0 0 0 0 0 0 0 0
FullNghs:            0 ave           0 max           0 min
Histogram: 1 0 0 0 0 0 0 0 0 0

Total # of neighbors = 16
Ave neighs/atom = 3.2
Ave special neighs/atom = 0
Neighbor list builds = 32
Dangerous builds = 0
unfix 1
unfix 2
write_restart 	restart.${simname}.dreiding1
write_restart 	restart.InitialFile.dreiding1
System init for write_restart ...
Generated 0 of 3 mixed pair_coeff terms from geometric mixing rule

#####################################################
# Define Settings
compute eng all pe/atom
compute eatoms all reduce sum c_eng

#####################################################
# Minimization

dump mydmp all atom 100 dump.lammpstrj

reset_timestep 0
fix 1 all nvt temp 300.0 300.0 100.0
thermo 20
thermo_style custom step pe lx ly lz press pxx pyy pzz c_eatoms
min_style cg
minimize 1e-25 1e-25 500000 1000000
Generated 0 of 3 mixed pair_coeff terms from geometric mixing rule
Per MPI rank memory allocation (min/avg/max) = 5.819 | 5.819 | 5.819 Mbytes
   Step         PotEng           Lx             Ly             Lz           Press           Pxx            Pyy            Pzz          c_eatoms   
         0  -39.69334       15.5           15.5           15.5           253.91627      374.77434      246.91757      140.05689     -39.69334     
        20  -40.002905      15.5           15.5           15.5           38.352062      50.188732      13.558065      51.309387     -40.002905    
        38  -40.003105      15.5           15.5           15.5           38.511046      50.520033      13.652759      51.360346     -40.003105    
Loop time of 0.0013945 on 1 procs for 38 steps with 5 atoms

25.2% CPU use with 1 MPI tasks x no OpenMP threads

Minimization stats:
  Stopping criterion = linesearch alpha is zero
  Energy initial, next-to-last, final = 
     -39.6933399612343  -40.0031052943789  -40.0031052943789
  Force two-norm initial, final = 31.409279 0.010656417
  Force max component initial, final = 16.07341 0.0066457003
  Final line search alpha, max atom move = 6.1035156e-05 4.0562135e-07
  Iterations, force evaluations = 38 179

MPI task timing breakdown:
Section |  min time  |  avg time  |  max time  |%varavg| %total
---------------------------------------------------------------
Pair    | 9.2377e-05 | 9.2377e-05 | 9.2377e-05 |   0.0 |  6.62
Bond    | 1.139e-05  | 1.139e-05  | 1.139e-05  |   0.0 |  0.82
Neigh   | 0          | 0          | 0          |   0.0 |  0.00
Comm    | 9.7526e-05 | 9.7526e-05 | 9.7526e-05 |   0.0 |  6.99
Output  | 2.6928e-05 | 2.6928e-05 | 2.6928e-05 |   0.0 |  1.93
Modify  | 0          | 0          | 0          |   0.0 |  0.00
Other   |            | 0.001166   |            |       | 83.63

Nlocal:              5 ave           5 max           5 min
Histogram: 1 0 0 0 0 0 0 0 0 0
Nghost:             87 ave          87 max          87 min
Histogram: 1 0 0 0 0 0 0 0 0 0
Neighs:             16 ave          16 max          16 min
Histogram: 1 0 0 0 0 0 0 0 0 0
FullNghs:            0 ave           0 max           0 min
Histogram: 1 0 0 0 0 0 0 0 0 0

Total # of neighbors = 16
Ave neighs/atom = 3.2
Ave special neighs/atom = 0
Neighbor list builds = 0
Dangerous builds = 0

unfix 1

molecule mol molTemplate.txt
Read molecule template mol:
  1 molecules
  0 fragments
  2 atoms with max type 3
  0 bonds with max type 0
  0 angles with max type 0
  0 dihedrals with max type 0
  0 impropers with max type 0
molecule mol2 molTemplate2.txt
Read molecule template mol2:
  1 molecules
  0 fragments
  2 atoms with max type 3
  0 bonds with max type 0
  0 angles with max type 0
  0 dihedrals with max type 0
  0 impropers with max type 0



#####################################################
# Do the reactions
fix rxns all bond/react stabilization yes statted_grp .03   react reac all 1 0 10 mol mol2 map.txt
dynamic group bond_react_MASTER_group defined
dynamic group statted_grp_REACT defined

fix 1 statted_grp_REACT nvt temp 300 300 100

thermo_style custom step temp f_rxns[1]


run 1000000

CITE-CITE-CITE-CITE-CITE-CITE-CITE-CITE-CITE-CITE-CITE-CITE-CITE

Your simulation uses code contributions which should be cited:

- fix bond/react: reacter.org doi:10.1016/j.polymer.2017.09.038, doi:10.1021/acs.macromol.0c02012

@Article{Gissinger17,
 author = {J. R. Gissinger and B. D. Jensen and K. E. Wise},
 title = {Modeling Chemical Reactions in Classical Molecular Dynamics Simulations},
 journal = {Polymer},
 year =    2017,
 volume =  128,
 pages =   {211--217}
}

@Article{Gissinger20,
 author = {J. R. Gissinger, B. D. Jensen, K. E. Wise},
 title = {{REACTER}: A Heuristic Method for Reactive Molecular Dynamics},
 journal = {Macromolecules},
 year =    2020,
 volume =  53,
 number =  22,
 pages =   {9953--9961}
}

CITE-CITE-CITE-CITE-CITE-CITE-CITE-CITE-CITE-CITE-CITE-CITE-CITE

Generated 0 of 3 mixed pair_coeff terms from geometric mixing rule
Neighbor list info ...
  update: every = 1 steps, delay = 0 steps, check = yes
  max neighbors/atom: 2000, page size: 100000
  master list distance cutoff = 12.5
  ghost atom cutoff = 12.5
  binsize = 6.25, bins = 3 3 3
  3 neighbor lists, perpetual/occasional/extra = 1 2 0
  (1) pair lj/cut, perpetual
      attributes: half, newton on
      pair build: half/bin/newton
      stencil: half/bin/3d
      bin: standard
  (2) compute centro/atom, occasional
      attributes: full, newton on
      pair build: full/bin
      stencil: full/bin/3d
      bin: standard
  (3) fix bond/react, occasional, copy from (1)
      attributes: half, newton on
      pair build: copy
      stencil: none
      bin: none
Per MPI rank memory allocation (min/avg/max) = 6.194 | 6.194 | 6.194 Mbytes
   Step          Temp        f_rxns[1]   
        38   263.77866      0            
        40   253.02075      1            
        60   229.1651       1            
        80   239.68445      1            
       100   246.76306      1            
       120   277.49472      2            
       140   262.31669      2            
       160   301.92956      2            
       180   313.43981      3            
       200   281.69924      3            
       220   348.80127      3            
       240   338.78844      3            
       260   404.82225      3            
       280   482.54204      3            
       300   516.23792      3            
       320   567.8134       3            
       340   611.35802      3            
       360   547.10671      3            
       380   525.09532      3            
       400   457.94992      3            
       420   347.57185      3            
       440   307.9376       3            
       460   280.5106       3            
       480   239.11424      3            
       500   233.10938      3            
       520   248.83034      3            
       540   219.0351       3            
       560   239.28732      3            
       580   257.39869      3            
       600   238.65017      3            
       620   275.291        3            
       640   292.89283      3            
       660   315.62932      3            
       680   330.85485      3            
       700   397.25017      3            
       720   355.19122      3            
       740   407.55168      3            
       760   407.77744      3            
       780   382.15506      3            
       800   425.88176      3            
       820   405.15768      3            
       840   350.6213       3            
       860   306.36937      3            
       880   235.02801      3            
       900   180.49498      3            
       920   149.49933      3            
       940   151.32219      3            
       960   120.8831       3            
       980   135.01229      3            
      1000   128.23394      3            
      1020   146.76655      3            
      1040   145.27727      3            
      1060   197.97432      3            
      1080   199.99964      3            
      1100   252.16611      3            
      1120   293.25356      3            
      1140   351.07153      3            
      1160   343.00896      3            
      1180   429.98069      3            
      1200   361.36672      3            
      1220   417.52134      3            
      1240   373.77319      3            
      1260   358.13265      3            
      1280   331.43861      3            
      1300   310.95346      3            
      1320   270.71676      3            
      1340   264.50763      3            
      1360   229.79952      3            
      1380   217.42356      3            
      1400   196.61072      3            
      1420   187.74176      3            
      1440   180.21155      3            
      1460   157.27675      3            
      1480   162.94246      3            
      1500   143.34384      3            
      1520   134.6773       3            
      1540   118.56925      3            
      1560   133.19761      3            
      1580   104.84774      3            
      1600   133.20921      3            
      1620   127.35365      3            
      1640   149.72416      3            
      1660   165.05545      3            
      1680   236.12602      3            
      1700   243.54647      3            
      1720   333.43517      3            
      1740   383.24644      3            
      1760   374.45097      3            
      1780   470.5851       3            
      1800   407.06389      3            
      1820   447.51376      3            
      1840   398.50666      3            
      1860   381.17808      3            
      1880   312.53742      3            
      1900   281.28436      3            
      1920   252.64284      3            
      1940   199.80615      3            
      1960   194.34547      3            
      1980   168.97369      3            
      2000   158.11246      3            
      2020   144.88942      3            
      2040   158.74792      3            
      2060   139.104        3            
      2080   164.44678      3            
      2100   169.38873      3            
      2120   216.97276      3            
      2140   266.09886      3            
      2160   442.34907      3            
      2180   481.97487      3            
      2200   645.25317      3            
      2220   600.20552      3            
      2240   608.46809      3            
      2260   524.9306       3            
      2280   446.23863      3            
      2300   383.75081      3            
      2320   330.44392      3            
      2340   281.72072      3            
      2360   254.87098      3            
      2380   238.60072      3            
      2400   222.96802      3            
      2420   211.2348       3            
      2440   231.74025      3            
      2460   212.85993      3            
      2480   240.63029      3            
      2500   239.66963      3            
      2520   273.10774      3            
      2540   274.48277      3            
      2560   347.71261      3            
      2580   355.97267      3            
      2600   433.80072      3            
      2620   496.72048      3            
      2640   528.36078      3            
      2660   620.89812      3            
      2680   606.4662       3            
      2700   617.23906      3            
      2720   550.4549       3            
      2740   437.91677      3            
      2760   321.27788      3            
      2780   248.86627      3            
      2800   212.12332      3            
      2820   184.27997      3            
      2840   186.84401      3            
      2860   191.80254      3            
      2880   198.22081      3            
      2900   238.84025      3            
      2920   304.77999      3            
      2940   480.86198      3            
      2960   1382.7104      3            
      2980   933.43211      3            
      3000   971.03126      3            
      3020   730.35717      3            
      3040   747.71676      3            
      3060   591.48412      3            
      3080   1096.7258      3            
      3100   385.40832      3            
      3120   573.90852      3            
      3140   363.82526      3            
      3160   972.41328      3            
      3180   479.78406      3            
      3200   327.45803      3            
      3220   281.40028      3            
      3240   304.36147      3            
      3260   379.78317      3            
      3280   524.33948      3            
      3300   248.73629      3            
      3320   261.44415      3            
      3340   303.69847      3            
      3360   154.8793       3            
      3380   260.79274      3            
      3400   198.64951      3            
      3420   266.36274      3            
      3440   147.4644       3            
      3460   125.73384      3            
      3480   204.97956      3            
      3500   141.19206      3            
      3520   183.16986      3            
      3540   221.62203      3            
      3560   208.99783      3            
      3580   291.43424      3            
      3600   350.86803      3            
      3620   226.52895      3            
      3640   231.93421      3            
      3660   288.81675      3            
      3680   495.81999      3            
      3700   307.40332      3            
      3720   144.73273      3            
      3740   436.12466      3            
      3760   242.09128      3            
      3780   211.17622      3            
      3800   480.80453      3            
      3820   196.32996      3            
      3840   365.93032      3            
      3860   270.95368      3            
      3880   317.93664      3            
      3900   322.24864      3            
      3920   217.42388      3            
      3940   283.32227      3            
      3960   446.18464      3            
      3980   79.500135      3            
      4000   218.82999      3            
      4020   122.07833      3            
      4040   336.60333      3            
      4060   200.65658      3            
      4080   107.70416      3            
      4100   320.72742      3            
      4120   113.2893       3            
      4140   193.8581       3            
      4160   235.91297      3            
      4180   283.76948      3            
      4200   188.40275      3            
      4220   340.59068      3            
      4240   441.79342      3            
      4260   362.56122      3            
      4280   324.04197      3            
      4300   638.16599      3            
      4320   553.07829      3            
      4340   444.58382      3            
      4360   541.84192      3            
      4380   547.9394       3            
      4400   411.44627      3            
      4420   312.51266      3            
      4440   389.16911      3            
      4460   459.46545      3            
      4480   313.18398      3            
      4500   242.88939      3            
      4520   323.84634      3            
      4540   271.26113      3            
      4560   130.28366      3            
      4580   260.83531      3            
      4600   372.73399      3            
      4620   189.19956      3            
      4640   305.98127      3            
      4660   188.31264      3            
      4680   194.56644      3            
      4700   332.51429      3            
      4720   379.33973      3            
      4740   264.84343      3            
      4760   106.61183      3            
      4780   330.27171      3            
      4800   335.20221      3            
      4820   173.75216      3            
      4840   576.64296      3            
      4860   90.661288      3            
      4880   377.36715      3            
      4900   568.56865      3            
      4920   487.68765      3            
      4940   435.05713      3            
      4960   442.93284      3            
      4980   482.48158      3            
      5000   489.78077      3            
      5020   457.51636      3            
      5040   361.28903      3            
      5060   503.22291      3            
      5080   343.13821      3            
      5100   177.23512      3            
      5120   262.6556       3            
      5140   230.58807      3            
      5160   200.39017      3            
      5180   309.89717      3            
      5200   369.00207      3            
      5220   176.81979      3            
      5240   385.54549      3            
      5260   417.42261      3            
      5280   263.20883      3            
      5300   360.14804      3            
      5320   217.15998      3            
      5340   188.69279      3            
      5360   173.94144      3            
      5380   203.14514      3            
      5400   374.97843      3            
      5420   552.49794      3            
      5440   474.99783      3            
      5460   435.25024      3            
      5480   682.47771      3            
      5500   595.87276      3            
      5520   256.73064      3            
      5540   743.77624      3            
      5560   434.65378      3            
      5580   469.73372      3            
      5600   227.87214      3            
      5620   480.07447      3            
      5640   517.93742      3            
      5660   282.31362      3            
      5680   531.48817      3            
      5700   436.36514      3            
      5720   226.21913      3            
      5740   355.01819      3            
      5760   264.91497      3            
      5780   213.1548       3            
      5800   236.62004      3            
      5820   97.950179      3            
      5840   312.56496      3            
      5860   250.39099      3            
      5880   303.32137      3            
      5900   344.70987      3            
      5920   281.3562       3            
      5940   350.34742      3            
      5960   215.52448      3            
      5980   281.68671      3            
      6000   358.89767      3            
      6020   223.09606      3            
      6040   179.05881      3            
      6060   174.06944      3            
      6080   263.2109       3            
      6100   383.81724      3            
      6120   139.89995      3            
      6140   636.68065      3            
      6160   486.44964      3            
      6180   331.01394      3            
      6200   738.25136      3            
      6220   418.50142      3            
      6240   388.61905      3            
      6260   467.17797      3            
      6280   300.02081      3            
      6300   519.42703      3            
      6320   272.90563      3            
      6340   309.95095      3            
      6360   450.26437      3            
      6380   373.18206      3            
      6400   344.45427      3            
      6420   350.2791       3            
      6440   128.31111      3            
      6460   275.69363      3            
      6480   185.09983      3            
      6500   185.9265       3            
      6520   286.60804      3            
      6540   333.39204      3            
      6560   295.81155      3            
      6580   338.00374      3            
      6600   344.36238      3            
      6620   387.08295      3            
      6640   137.35509      3            
      6660   442.18341      3            
      6680   161.66602      3            
      6700   468.4767       3            
      6720   487.12         3            
      6740   286.58558      3            
      6760   515.25082      3            
      6780   529.91032      3            
      6800   613.88491      3            
      6820   505.46039      3            
      6840   531.94188      3            
      6860   614.62637      3            
      6880   451.75939      3            
      6900   310.11109      3            
      6920   308.52817      3            
      6940   283.98478      3            
      6960   379.29884      3            
      6980   226.00685      3            
      7000   239.63703      3            
      7020   105.63585      3            
      7040   198.5919       3            
      7060   290.46552      3            
      7080   128.63557      3            
      7100   247.89987      3            
      7120   73.552189      3            
      7140   419.08309      3            
      7160   66.906997      3            
      7180   433.04729      3            
      7200   214.22396      3            
      7220   189.77593      3            
      7240   296.71892      3            
      7260   339.82682      3            
      7280   581.00291      3            
      7300   135.46171      3            
      7320   404.03031      3            
      7340   284.21805      3            
      7360   233.53867      3            
      7380   451.28084      3            
      7400   135.41027      3            
      7420   606.72891      3            
      7440   496.9006       3            
      7460   399.20795      3            
      7480   567.09421      3            
      7500   219.08154      3            
      7520   415.5911       3            
      7540   267.32879      3            
      7560   226.26604      3            
      7580   265.41648      3            
      7600   189.47404      3            
      7620   208.67345      3            
      7640   177.70926      3            
      7660   204.22718      3            
      7680   78.941129      3            
      7700   126.645        3            
      7720   241.77429      3            
      7740   285.58705      3            
      7760   181.36343      3            
      7780   157.93336      3            
      7800   313.954        3            
      7820   291.89689      3            
      7840   477.34114      3            
      7860   243.72657      3            
      7880   461.94373      3            
      7900   248.827        3            
      7920   181.16021      3            
      7940   373.69614      3            
      7960   446.45866      3            
      7980   639.7172       3            
      8000   400.12869      3            
      8020   336.96635      3            
      8040   481.12619      3            
      8060   269.8353       3            
      8080   445.49877      3            
      8100   146.57348      3            
      8120   520.48498      3            
      8140   136.99665      3            
      8160   276.54045      3            
      8180   241.67609      3            
      8200   301.85531      3            
      8220   199.55731      3            
      8240   229.70034      3            
      8260   226.66097      3            
      8280   355.92733      3            
      8300   367.90506      3            
      8320   329.11472      3            
      8340   410.75023      3            
      8360   243.58409      3            
      8380   248.28451      3            
      8400   241.62191      3            
      8420   142.95987      3            
      8440   95.474769      3            
      8460   189.17648      3            
      8480   206.51964      3            
      8500   297.19196      3            
      8520   248.9218       3            
      8540   149.35332      3            
      8560   123.18412      3            
      8580   148.22001      3            
      8600   201.09113      3            
      8620   190.81139      3            
      8640   205.6671       3            
      8660   201.18336      3            
      8680   298.42061      3            
      8700   332.11555      3            
      8720   262.09067      3            
      8740   162.493        3            
      8760   407.13576      3            
      8780   251.96828      3            
      8800   450.40596      3            
      8820   237.684        3            
      8840   496.62766      3            
      8860   261.06171      3            
      8880   350.90156      3            
      8900   253.30028      3            
      8920   472.24619      3            
      8940   250.84234      3            
      8960   493.89994      3            
      8980   154.61064      3            
      9000   504.86037      3            
      9020   189.60347      3            
      9040   312.70031      3            
      9060   150.73428      3            
      9080   304.96203      3            
      9100   247.87082      3            
      9120   162.98066      3            
      9140   321.48473      3            
      9160   123.41577      3            
      9180   181.0487       3            
      9200   142.67094      3            
      9220   103.67001      3            
      9240   183.1569       3            
      9260   102.81636      3            
      9280   271.27538      3            
      9300   199.97966      3            
      9320   182.46251      3            
      9340   278.7051       3            
      9360   121.73105      3            
      9380   430.75109      3            
      9400   145.59679      3            
      9420   225.00801      3            
      9440   235.49381      3            
      9460   224.68121      3            
      9480   465.58705      3            
      9500   42.894602      3            
      9520   523.88423      3            
      9540   192.74216      3            
      9560   422.1472       3            
      9580   385.74148      3            
      9600   246.76049      3            
      9620   192.01915      3            
      9640   275.16124      3            
      9660   375.40154      3            
      9680   514.8485       3            
      9700   358.80676      3            
      9720   295.22319      3            
      9740   297.86652      3            
      9760   540.25756      3            
      9780   445.32466      3            
      9800   373.26354      3            
      9820   351.32534      3            
      9840   688.43567      3            
      9860   466.33284      3            
      9880   509.04953      3            
      9900   278.05805      3            
      9920   424.65497      3            
      9940   472.88096      3            
      9960   370.79367      3            
      9980   168.49608      3            
     10000   282.43945      3            
     10020   380.95789      3            
     10040   308.38958      3            
     10060   57.213295      3            
     10080   171.72004      3            
     10100   219.38067      3            
     10120   271.31133      3            
     10140   326.78662      3            
     10160   240.32966      3            
     10180   311.17183      3            
     10200   177.7911       3            
     10220   197.19302      3            
     10240   222.96239      3            
     10260   299.09036      3            
     10280   368.79915      3            
     10300   416.29865      3            
     10320   299.89187      3            
     10340   453.4589       3            
     10360   252.92671      3            
     10380   584.08707      3            
     10400   253.87399      3            
     10420   469.01555      3            
     10440   335.88418      3            
     10460   567.55047      3            
     10480   519.30431      3            
     10500   401.72699      3            
     10520   448.71419      3            
     10540   294.32918      3            
     10560   400.86475      3            
     10580   496.14917      3            
     10600   443.53785      3            
     10620   349.593        3            
     10640   254.76465      3            
     10660   251.2485       3            
     10680   320.49576      3            
     10700   386.27073      3            
     10720   171.90594      3            
     10740   214.60066      3            
     10760   222.18374      3            
     10780   111.14398      3            
     10800   242.7714       3            
     10820   185.22966      3            
     10840   204.44263      3            
     10860   197.23857      3            
     10880   338.45824      3            
     10900   316.61706      3            
     10920   405.95841      3            
     10940   395.76721      3            
     10960   320.693        3            
     10980   640.51548      3            
     11000   354.0379       3            
     11020   341.43314      3            
     11040   386.59532      3            
     11060   425.78828      3            
     11080   156.48979      3            
     11100   536.98462      3            
     11120   200.33607      3            
     11140   431.21958      3            
     11160   239.76772      3            
     11180   351.11619      3            
     11200   312.19558      3            
     11220   348.88934      3            
     11240   269.30746      3            
     11260   180.82445      3            
     11280   158.74938      3            
     11300   58.797961      3            
     11320   171.76914      3            
     11340   267.49291      3            
     11360   160.48754      3            
     11380   164.65103      3            
     11400   419.56779      3            
     11420   210.70983      3            
     11440   145.96178      3            
     11460   268.22071      3            
     11480   327.54261      3            
     11500   343.03672      3            
     11520   303.09621      3            
     11540   326.42872      3            
     11560   306.50799      3            
     11580   366.0214       3            
     11600   328.43529      3            
     11620   259.15189      3            
     11640   321.92784      3            
     11660   398.77345      3            
     11680   358.12836      3            
     11700   361.67401      3            
     11720   619.41728      3            
     11740   432.84286      3            
     11760   233.51822      3            
     11780   452.8793       3            
     11800   495.19134      3            
     11820   373.92019      3            
     11840   382.83121      3            
     11860   336.0322       3            
     11880   276.59673      3            
     11900   390.65541      3            
     11920   148.23643      3            
     11940   307.69025      3            
     11960   351.00172      3            
     11980   249.54789      3            
     12000   421.64337      3            
     12020   259.43092      3            
     12040   319.52298      3            
     12060   284.30535      3            
     12080   223.63911      3            
     12100   154.5164       3            
     12120   224.46403      3            
     12140   199.84618      3            
     12160   287.64659      3            
     12180   158.85178      3            
     12200   132.13698      3            
     12220   265.1278       3            
     12240   181.71444      3            
     12260   309.32751      3            
     12280   403.01063      3            
     12300   266.23545      3            
     12320   360.06873      3            
     12340   330.16227      3            
     12360   347.4214       3            
     12380   172.5589       3            
     12400   508.75934      3            
     12420   267.19282      3            
     12440   329.10805      3            
     12460   641.53         3            
     12480   198.36529      3            
     12500   510.83367      3            
     12520   348.53336      3            
     12540   408.14229      3            
     12560   252.28295      3            
     12580   338.49187      3            
     12600   360.22202      3            
     12620   195.23418      3            
     12640   148.34134      3            
     12660   177.87024      3            
     12680   134.24751      3            
     12700   286.78949      3            
     12720   157.40377      3            
     12740   218.8868       3            
     12760   360.27704      3            
     12780   255.96194      3            
     12800   344.52911      3            
     12820   315.44754      3            
     12840   558.44845      3            
     12860   303.39059      3            
     12880   296.12165      3            
     12900   302.77024      3            
     12920   434.28508      3            
     12940   162.20832      3            
     12960   355.88683      3            
     12980   384.30757      3            
     13000   314.39185      3            
     13020   229.37152      3            
     13040   528.61368      3            
     13060   421.06946      3            
     13080   749.91924      3            
     13100   266.69809      3            
     13120   513.78305      3            
     13140   623.17614      3            
     13160   381.23297      3            
     13180   500.26591      3            
     13200   398.42785      3            
     13220   745.04636      3            
     13240   440.2222       3            
     13260   213.27401      3            
     13280   223.24011      3            
     13300   332.02776      3            
     13320   214.41527      3            
     13340   309.65787      3            
     13360   298.00275      3            
     13380   257.97192      3            
     13400   440.66481      3            
     13420   125.8762       3            
     13440   384.33995      3            
     13460   161.76766      3            
     13480   422.94616      3            
     13500   281.41378      3            
     13520   337.74069      3            
     13540   354.16939      3            
     13560   177.70114      3            
     13580   395.9101       3            
     13600   207.65998      3            
     13620   377.80076      3            
     13640   224.0217       3            
     13660   632.52965      3            
     13680   225.37053      3            
     13700   673.3406       3            
     13720   250.04957      3            
     13740   158.45457      3            
     13760   240.56283      3            
     13780   148.12536      3            
     13800   286.73585      3            
     13820   230.89743      3            
     13840   570.70124      3            
     13860   428.05236      3            
     13880   404.30542      3            
     13900   692.60069      3            
     13920   612.7882       3            
     13940   326.97135      3            
     13960   405.68314      3            
     13980   293.40415      3            
     14000   526.65253      3            
     14020   312.96726      3            
     14040   494.36657      3            
     14060   436.29055      3            
     14080   407.78941      3            
     14100   353.67884      3            
     14120   104.06624      3            
     14140   303.23532      3            
     14160   470.56361      3            
     14180   168.34696      3            
     14200   258.86919      3            
     14220   293.61367      3            
     14240   358.12944      3            
     14260   134.55791      3            
     14280   127.28648      3            
     14300   297.54413      3            
     14320   175.94284      3            
     14340   207.73085      3            
     14360   387.18902      3            
     14380   183.15659      3            
     14400   386.63714      3            
     14420   319.10277      3            
     14440   560.962        3            
     14460   396.86141      3            
     14480   458.69438      3            
     14500   381.14512      3            
     14520   325.61356      3            
     14540   489.56589      3            
     14560   298.77611      3            
     14580   417.05854      3            
     14600   161.00468      3            
     14620   527.19719      3            
     14640   256.95755      3            
     14660   401.03361      3            
     14680   356.65451      3            
     14700   360.10788      3            
     14720   233.93827      3            
     14740   274.65115      3            
     14760   150.93548      3            
     14780   323.42427      3            
     14800   276.74863      3            
     14820   270.66793      3            
     14840   437.48568      3            
     14860   216.05771      3            
     14880   230.50533      3            
     14900   267.6105       3            
     14920   312.77783      3            
     14940   151.61354      3            
     14960   212.39187      3            
     14980   271.72978      3            
     15000   150.78985      3            
     15020   296.02324      3            
     15040   501.21842      3            
     15060   291.14094      3            
     15080   386.77815      3            
     15100   513.13475      3            
     15120   437.16287      3            
     15140   613.73081      3            
     15160   552.97206      3            
     15180   426.15653      3            
     15200   610.30398      3            
     15220   593.01852      3            
     15240   460.31219      3            
     15260   554.70434      3            
     15280   394.25149      3            
     15300   266.83592      3            
     15320   185.36616      3            
     15340   241.86136      3            
     15360   339.2158       3            
     15380   253.2059       3            
     15400   219.7485       3            
     15420   177.60853      3            
     15440   126.96799      3            
     15460   318.51235      3            
     15480   374.97139      3            
     15500   186.38715      3            
     15520   346.48762      3            
     15540   374.59363      3            
     15560   286.08636      3            
     15580   220.05776      3            
     15600   276.81212      3            
     15620   379.57629      3            
     15640   221.02616      3            
     15660   222.43149      3            
     15680   406.71646      3            
     15700   343.71566      3            
     15720   511.48306      3            
     15740   398.92506      3            
     15760   581.24564      3            
     15780   569.30533      3            
     15800   689.55576      3            
     15820   423.57818      3            
     15840   321.77685      3            
     15860   479.47856      3            
     15880   425.03279      3            
     15900   334.07043      3            
     15920   188.56676      3            
     15940   161.94715      3            
     15960   221.35782      3            
     15980   138.22991      3            
     16000   202.26066      3            
     16020   219.75005      3            
     16040   396.51214      3            
     16060   296.07748      3            
     16080   348.8142       3            
     16100   256.71955      3            
     16120   190.30448      3            
     16140   301.40462      3            
     16160   346.1589       3            
     16180   75.404507      3            
     16200   344.06184      3            
     16220   153.31497      3            
     16240   409.56989      3            
     16260   267.1899       3            
     16280   533.42582      3            
     16300   512.10108      3            
     16320   301.84183      3            
     16340   499.90913      3            
     16360   429.37628      3            
     16380   129.05436      3            
     16400   348.95048      3            
     16420   361.7959       3            
     16440   193.87989      3            
     16460   145.4362       3            
     16480   276.30958      3            
     16500   206.67504      3            
     16520   163.11461      3            
     16540   213.32881      3            
     16560   352.6238       3            
     16580   190.19682      3            
     16600   233.94062      3            
     16620   127.77177      3            
     16640   299.98776      3            
     16660   211.6709       3            
     16680   322.35855      3            
     16700   231.64058      3            
     16720   130.67293      3            
     16740   235.68219      3            
     16760   399.9575       3            
     16780   319.61357      3            
     16800   326.42164      3            
     16820   220.45124      3            
     16840   407.7814       3            
     16860   458.48913      3            
     16880   415.20206      3            
     16900   383.42983      3            
     16920   453.5732       3            
     16940   421.23113      3            
     16960   597.38275      3            
     16980   242.364        3            
     17000   317.82324      3            
     17020   492.61032      3            
     17040   339.7528       3            
     17060   467.2329       3            
     17080   229.54188      3            
     17100   353.92903      3            
     17120   400.29443      3            
     17140   265.46615      3            
     17160   231.79485      3            
     17180   299.62367      3            
     17200   304.16282      3            
     17220   270.97627      3            
     17240   99.637794      3            
     17260   288.12182      3            
     17280   138.17027      3            
     17300   317.69448      3            
     17320   175.07711      3            
     17340   299.80593      3            
     17360   190.00326      3            
     17380   138.87935      3            
     17400   244.29806      3            
     17420   152.59765      3            
     17440   263.77035      3            
     17460   178.77328      3            
     17480   178.87041      3            
     17500   98.117698      3            
     17520   69.337853      3            
     17540   127.72205      3            
     17560   75.523987      3            
     17580   159.31314      3            
     17600   158.42178      3            
     17620   331.4557       3            
     17640   347.95123      3            
     17660   386.51471      3            
     17680   219.11933      3            
     17700   282.22791      3            
     17720   251.27831      3            
     17740   578.63332      3            
     17760   195.84701      3            
     17780   472.40614      3            
     17800   370.40638      3            
     17820   275.5688       3            
     17840   318.21259      3            
     17860   409.79752      3            
     17880   293.11582      3            
     17900   338.86379      3            
     17920   337.76526      3            
     17940   105.32229      3            
     17960   342.88294      3            
     17980   319.14606      3            
     18000   195.08779      3            
     18020   150.82767      3            
     18040   277.4852       3            
     18060   201.61161      3            
     18080   147.89069      3            
     18100   138.92975      3            
     18120   182.29651      3            
     18140   268.0081       3            
     18160   290.68998      3            
     18180   178.63977      3            
     18200   122.70493      3            
     18220   266.65298      3            
     18240   183.22453      3            
     18260   189.60766      3            
     18280   132.58325      3            
     18300   305.37865      3            
     18320   267.29387      3            
     18340   191.46187      3            
     18360   284.45936      3            
     18380   269.90216      3            
     18400   215.94292      3            
     18420   280.3463       3            
     18440   307.98099      3            
     18460   421.11036      3            
     18480   174.16132      3            
     18500   314.58779      3            
     18520   363.34451      3            
     18540   482.39664      3            
     18560   187.106        3            
     18580   515.02443      3            
     18600   477.95576      3            
     18620   153.48769      3            
     18640   248.05326      3            
     18660   420.07682      3            
     18680   221.45431      3            
     18700   274.82191      3            
     18720   224.2115       3            
     18740   231.12499      3            
     18760   219.70386      3            
     18780   251.21979      3            
     18800   199.4196       3            
     18820   168.35963      3            
     18840   156.98655      3            
     18860   161.84157      3            
     18880   183.61382      3            
     18900   181.76053      3            
     18920   290.10942      3            
     18940   233.63252      3            
     18960   223.15429      3            
     18980   199.61669      3            
     19000   227.58669      3            
     19020   269.10993      3            
     19040   233.38721      3            
     19060   464.94171      3            
     19080   167.53744      3            
     19100   405.40427      3            
     19120   435.29115      3            
     19140   361.85844      3            
     19160   346.63241      3            
     19180   405.83094      3            
     19200   325.99542      3            
     19220   433.86489      3            
     19240   397.37441      3            
     19260   561.02641      3            
     19280   307.3883       3            
     19300   364.97532      3            
     19320   194.17778      3            
     19340   173.78937      3            
     19360   361.79075      3            
     19380   282.86861      3            
     19400   152.47196      3            
     19420   123.10151      3            
     19440   85.592219      3            
     19460   158.26103      3            
     19480   63.027628      3            
     19500   194.25804      3            
     19520   121.97976      3            
     19540   87.720456      3            
     19560   191.02025      3            
     19580   122.77198      3            
     19600   119.09631      3            
     19620   117.78344      3            
     19640   233.05006      3            
     19660   141.59983      3            
     19680   79.686434      3            
     19700   252.032        3            
     19720   179.04209      3            
     19740   216.96525      3            
     19760   232.18814      3            
     19780   135.71665      3            
     19800   215.93794      3            
     19820   141.56803      3            
     19840   325.74368      3            
     19860   92.564371      3            
     19880   371.17992      3            
     19900   126.67644      3            
     19920   408.7077       3            
     19940   133.81448      3            
     19960   327.17713      3            
     19980   333.27037      3            
     20000   304.23764      3            
     20020   271.87096      3            
     20040   465.68495      3            
     20060   272.01249      3            
     20080   265.33377      3            
     20100   328.85432      3            
     20120   245.38701      3            
     20140   295.54263      3            
     20160   285.75191      3            
     20180   183.44704      3            
     20200   205.51626      3            
     20220   268.36154      3            
     20240   187.55106      3            
     20260   243.24095      3            
     20280   132.29553      3            
     20300   168.90814      3            
     20320   240.46385      3            
     20340   187.79487      3            
     20360   222.40153      3            
     20380   67.341927      3            
     20400   209.24241      3            
     20420   235.85857      3            
     20440   232.96057      3            
     20460   303.57822      3            
     20480   152.17681      3            
     20500   438.07768      3            
     20520   485.94365      3            
     20540   247.41236      3            
     20560   236.1241       3            
     20580   309.56557      3            
     20600   240.04676      3            
     20620   407.84833      3            
     20640   249.84517      3            
     20660   277.80209      3            
     20680   437.1992       3            
     20700   542.2866       3            
     20720   244.99965      3            
     20740   373.17323      3            
     20760   379.64807      3            
     20780   338.94673      3            
     20800   309.71645      3            
     20820   183.4685       3            
     20840   156.4325       3            
     20860   221.67194      3            
     20880   144.11617      3            
     20900   133.81234      3            
     20920   80.60058       3            
     20940   130.77777      3            
     20960   196.27996      3            
     20980   187.70194      3            
     21000   139.68445      3            
     21020   185.11223      3            
     21040   197.82987      3            
     21060   231.91499      3            
     21080   218.9347       3            
     21100   39.368178      3            
     21120   238.19363      3            
     21140   147.0781       3            
     21160   204.55922      3            
     21180   292.17757      3            
     21200   289.11873      3            
     21220   333.87602      3            
     21240   163.08712      3            
     21260   430.88929      3            
     21280   285.65619      3            
     21300   514.41619      3            
     21320   231.75158      3            
     21340   333.69536      3            
     21360   219.70433      3            
     21380   367.75494      3            
     21400   401.55272      3            
     21420   221.72423      3            
     21440   310.71245      3            
     21460   391.44937      3            
     21480   313.59671      3            
     21500   508.71252      3            
     21520   349.18874      3            
     21540   360.04264      3            
     21560   237.08501      3            
     21580   365.08217      3            
     21600   192.56794      3            
     21620   310.60171      3            
     21640   317.54644      3            
     21660   181.06969      3            
     21680   252.8613       3            
     21700   249.96388      3            
     21720   304.15845      3            
     21740   258.48098      3            
     21760   192.75939      3            
     21780   269.56899      3            
     21800   33.04795       3            
     21820   248.11895      3            
     21840   257.53726      3            
     21860   236.78092      3            
     21880   397.94033      3            
     21900   224.16019      3            
     21920   471.46243      3            
     21940   179.05704      3            
     21960   421.34362      3            
     21980   474.40545      3            
     22000   376.97304      3            
     22020   431.27933      3            
     22040   192.88945      3            
     22060   308.30851      3            
     22080   385.35177      3            
     22100   315.08805      3            
     22120   226.71676      3            
     22140   366.70407      3            
     22160   290.68905      3            
     22180   369.66325      3            
     22200   445.68257      3            
     22220   349.96594      3            
     22240   197.61776      3            
     22260   321.46415      3            
     22280   240.24396      3            
     22300   286.44675      3            
     22320   238.59452      3            
     22340   214.24154      3            
     22360   213.90597      3            
     22380   109.20822      3            
     22400   319.45231      3            
     22420   146.32801      3            
     22440   168.21512      3            
     22460   402.01994      3            
     22480   296.65659      3            
     22500   362.40023      3            
     22520   505.59602      3            
     22540   578.8836       3            
     22560   210.74671      3            
     22580   529.39941      3            
     22600   377.15         3            
     22620   487.72178      3            
     22640   425.12022      3            
     22660   473.24687      3            
     22680   407.86258      3            
     22700   335.34152      3            
     22720   125.46952      3            
     22740   368.52285      3            
     22760   342.45415      3            
     22780   325.47131      3            
     22800   235.14759      3            
     22820   217.14377      3            
     22840   372.31772      3            
     22860   377.78896      3            
     22880   298.60111      3            
     22900   236.7167       3            
     22920   211.81924      3            
     22940   359.06195      3            
     22960   161.9181       3            
     22980   206.79218      3            
     23000   290.5286       3            
     23020   157.97491      3            
     23040   265.42642      3            
     23060   196.5087       3            
     23080   240.55732      3            
     23100   393.94347      3            
     23120   905.2029       3            
     23140   136.02921      3            
     23160   489.23626      3            
     23180   587.75057      3            
     23200   516.18344      3            
     23220   377.40301      3            
     23240   334.15312      3            
     23260   313.13146      3            
     23280   341.99516      3            
     23300   323.36524      3            
     23320   533.49636      3            
     23340   232.07431      3            
     23360   276.19168      3            
     23380   284.43317      3            
     23400   187.108        3            
     23420   254.50396      3            
     23440   416.18654      3            
     23460   310.54033      3            
     23480   271.30661      3            
     23500   185.20173      3            
     23520   345.29356      3            
     23540   204.98442      3            
     23560   149.70926      3            
     23580   272.00505      3            
     23600   282.23967      3            
     23620   284.3815       3            
     23640   430.65146      3            
     23660   241.14372      3            
     23680   232.51887      3            
     23700   193.59904      3            
     23720   554.76928      3            
     23740   369.12995      3            
     23760   689.06191      3            
     23780   345.82797      3            
     23800   536.04923      3            
     23820   431.52784      3            
     23840   406.30875      3            
     23860   390.08529      3            
     23880   438.49403      3            
     23900   539.9584       3            
     23920   255.89706      3            
     23940   536.66172      3            
     23960   134.6779       3            
     23980   371.14798      3            
     24000   340.75212      3            
     24020   166.3789       3            
     24040   190.16293      3            
     24060   211.50098      3            
     24080   453.01744      3            
     24100   238.94708      3            
     24120   334.14262      3            
     24140   227.40757      3            
     24160   388.22739      3            
     24180   419.93814      3            
     24200   284.39215      3            
     24220   286.82214      3            
     24240   135.64782      3            
     24260   468.69605      3            
     24280   124.89701      3            
     24300   344.32427      3            
     24320   232.71496      3            
     24340   492.04736      3            
     24360   191.19119      3            
     24380   897.77693      3            
     24400   560.59123      3            
     24420   384.78619      3            
     24440   582.65768      3            
     24460   316.23498      3            
     24480   708.27837      3            
     24500   578.08645      3            
     24520   516.84125      3            
     24540   287.46477      3            
     24560   288.64304      3            
     24580   548.75954      3            
     24600   548.6134       3            
     24620   314.52508      3            
     24640   353.29398      3            
     24660   266.37117      3            
     24680   218.99927      3            
     24700   147.29093      3            
     24720   281.72323      3            
     24740   259.05013      3            
     24760   277.53482      3            
     24780   214.4185       3            
     24800   287.82081      3            
     24820   407.49995      3            
     24840   201.12047      3            
     24860   246.23397      3            
     24880   170.09557      3            
     24900   298.70239      3            
     24920   265.96652      3            
     24940   370.72496      3            
     24960   183.65965      3            
     24980   137.28414      3            
     25000   344.1354       3            
     25020   192.94021      3            
     25040   161.72919      3            
     25060   100.73919      3            
     25080   152.47294      3            
     25100   188.48409      3            
     25120   242.22908      3            
     25140   339.33624      3            
     25160   272.28861      3            
     25180   292.64332      3            
     25200   356.62695      3            
     25220   556.06316      3            
     25240   348.79503      3            
     25260   231.64526      3            
     25280   541.58885      3            
     25300   496.65968      3            
     25320   516.27167      3            
     25340   203.88113      3            
     25360   459.13117      3            
     25380   474.11265      3            
     25400   339.24951      3            
     25420   470.74544      3            
     25440   252.94287      3            
     25460   435.49015      3            
     25480   206.29368      3            
     25500   235.90569      3            
     25520   143.22459      3            
     25540   192.26967      3            
     25560   293.74703      3            
     25580   106.73732      3            
     25600   196.59241      3            
     25620   286.19127      3            
     25640   199.84721      3            
     25660   323.70608      3            
     25680   148.51783      3            
     25700   228.3019       3            
     25720   78.942081      3            
     25740   321.6259       3            
     25760   217.61717      3            
     25780   240.65995      3            
     25800   228.12842      3            
     25820   237.74629      3            
     25840   349.30823      3            
     25860   330.33477      3            
     25880   367.36269      3            
     25900   306.06817      3            
     25920   345.73082      3            
     25940   384.17208      3            
     25960   287.0322       3            
     25980   317.68094      3            
     26000   383.63215      3            
     26020   358.77246      3            
     26040   199.28246      3            
     26060   491.77279      3            
     26080   349.59637      3            
     26100   397.23215      3            
     26120   317.8511       3            
     26140   100.4784       3            
     26160   195.18377      3            
     26180   170.23821      3            
     26200   97.514998      3            
     26220   203.2451       3            
     26240   186.57039      3            
     26260   127.84079      3            
     26280   257.12576      3            
     26300   222.72259      3            
     26320   96.560406      3            
     26340   253.24803      3            
     26360   46.041081      3            
     26380   201.02429      3            
     26400   259.97113      3            
     26420   272.15189      3            
     26440   361.71319      3            
     26460   106.71173      3            
     26480   404.85114      3            
     26500   422.90574      3            
     26520   223.16326      3            
     26540   353.61331      3            
     26560   369.66776      3            
     26580   232.68507      3            
     26600   462.64676      3            
     26620   265.82138      3            
     26640   374.82923      3            
     26660   502.7076       3            
     26680   281.49844      3            
     26700   283.87585      3            
     26720   483.04338      3            
     26740   311.04018      3            
     26760   186.54466      3            
     26780   228.14765      3            
     26800   126.85824      3            
     26820   179.96754      3            
     26840   91.447255      3            
     26860   94.604718      3            
     26880   114.79959      3            
     26900   88.914835      3            
     26920   109.76283      3            
     26940   151.12465      3            
     26960   194.64421      3            
     26980   150.65867      3            
     27000   171.113        3            
     27020   315.9794       3            
     27040   245.14929      3            
     27060   249.30359      3            
     27080   249.77314      3            
     27100   169.23266      3            
     27120   281.58582      3            
     27140   210.5214       3            
     27160   378.12389      3            
     27180   206.09213      3            
     27200   320.36229      3            
     27220   317.54023      3            
     27240   210.77859      3            
     27260   469.94031      3            
     27280   243.53458      3            
     27300   401.10032      3            
     27320   339.35291      3            
     27340   422.4847       3            
     27360   293.90895      3            
     27380   417.85401      3            
     27400   364.76973      3            
     27420   160.84786      3            
     27440   451.0086       3            
     27460   307.26253      3            
     27480   375.00261      3            
     27500   186.67864      3            
     27520   329.80417      3            
     27540   272.91556      3            
     27560   142.97181      3            
     27580   141.17808      3            
     27600   59.795162      3            
     27620   193.23827      3            
     27640   261.93925      3            
     27660   208.49887      3            
     27680   231.86029      3            
     27700   233.7155       3            
     27720   262.05604      3            
     27740   135.89445      3            
     27760   192.65126      3            
     27780   221.60569      3            
     27800   287.25331      3            
     27820   332.31238      3            
     27840   207.27359      3            
     27860   375.42039      3            
     27880   290.99549      3            
     27900   664.5744       3            
     27920   157.82469      3            
     27940   448.3841       3            
     27960   267.37913      3            
     27980   315.05876      3            
     28000   277.01202      3            
     28020   400.92359      3            
     28040   147.0272       3            
     28060   467.37018      3            
     28080   223.80046      3            
     28100   209.1739       3            
     28120   191.37097      3            
     28140   89.560513      3            
     28160   243.55889      3            
     28180   81.668834      3            
     28200   284.21964      3            
     28220   121.52989      3            
     28240   205.80271      3            
     28260   220.84949      3            
     28280   47.09365       3            
     28300   191.5914       3            
     28320   85.982187      3            
     28340   167.13624      3            
     28360   168.11976      3            
     28380   82.633841      3            
     28400   169.21866      3            
     28420   95.997491      3            
     28440   161.4545       3            
     28460   204.09732      3            
     28480   202.00248      3            
     28500   191.10552      3            
     28520   156.71138      3            
     28540   179.26809      3            
     28560   142.74139      3            
     28580   250.15628      3            
     28600   184.67844      3            
     28620   211.0041       3            
     28640   329.77367      3            
     28660   223.89908      3            
     28680   530.43787      3            
     28700   255.02929      3            
     28720   334.82759      3            
     28740   494.75398      3            
     28760   537.99727      3            
     28780   277.47669      3            
     28800   303.05253      3            
     28820   283.63158      3            
     28840   303.34572      3            
     28860   206.14924      3            
     28880   205.81883      3            
     28900   199.99985      3            
     28920   176.63415      3            
     28940   298.76522      3            
     28960   151.59928      3            
     28980   264.06268      3            
     29000   208.62242      3            
     29020   217.66886      3            
     29040   278.6615       3            
     29060   145.32867      3            
     29080   181.06045      3            
     29100   190.85057      3            
     29120   201.82293      3            
     29140   254.34413      3            
     29160   120.99446      3            
     29180   184.26106      3            
     29200   318.27588      3            
     29220   177.15133      3            
     29240   362.37064      3            
     29260   126.78241      3            
     29280   295.38764      3            
     29300   231.59347      3            
     29320   356.73921      3            
     29340   260.55321      3            
     29360   353.70767      3            
     29380   470.20413      3            
     29400   197.76231      3            
     29420   460.59353      3            
     29440   357.2166       3            
     29460   390.01966      3            
     29480   219.23972      3            
     29500   402.11474      3            
     29520   193.84824      3            
     29540   384.31455      3            
     29560   272.26328      3            
     29580   89.274858      3            
     29600   303.82196      3            
     29620   218.85773      3            
     29640   276.46936      3            
     29660   318.20017      3            
     29680   93.640797      3            
     29700   186.89895      3            
     29720   202.38523      3            
     29740   186.94084      3            
     29760   222.61475      3            
     29780   87.992132      3            
     29800   128.17716      3            
     29820   264.46869      3            
     29840   191.24605      3            
     29860   145.85974      3            
     29880   196.23653      3            
     29900   52.894776      3            
     29920   277.66604      3            
     29940   236.45715      3            
     29960   348.1393       3            
     29980   314.07775      3            
     30000   198.72209      3            
     30020   404.35219      3            
     30040   296.95513      3            
     30060   161.15447      3            
     30080   343.94962      3            
     30100   292.07972      3            
     30120   221.7408       3            
     30140   219.99976      3            
     30160   260.40027      3            
     30180   314.40606      3            
     30200   364.25848      3            
     30220   306.04881      3            
     30240   225.70235      3            
     30260   402.0272       3            
     30280   244.3307       3            
     30300   359.28912      3            
     30320   297.38466      3            
     30340   406.55777      3            
     30360   367.89301      3            
     30380   146.90372      3            
     30400   234.26583      3            
     30420   314.9567       3            
     30440   125.57883      3            
     30460   142.55467      3            
     30480   280.37439      3            
     30500   197.21626      3            
     30520   152.16604      3            
     30540   219.71216      3            
     30560   225.83923      3            
     30580   95.963613      3            
     30600   289.93399      3            
     30620   251.07378      3            
     30640   411.01609      3            
     30660   224.13426      3            
     30680   471.77902      3            
     30700   317.72404      3            
     30720   357.30806      3            
     30740   350.22006      3            
     30760   450.74353      3            
     30780   411.70239      3            
     30800   217.44746      3            
     30820   502.84135      3            
     30840   529.12404      3            
     30860   509.53376      3            
     30880   212.54285      3            
     30900   373.43687      3            
     30920   253.21183      3            
     30940   342.65952      3            
     30960   360.09456      3            
     30980   139.2378       3            
     31000   264.8867       3            
     31020   213.65963      3            
     31040   244.07158      3            
     31060   263.52052      3            
     31080   69.449692      3            
     31100   227.64075      3            
     31120   141.68955      3            
     31140   127.5196       3            
     31160   243.67213      3            
     31180   191.41187      3            
     31200   217.58419      3            
     31220   101.98401      3            
     31240   384.68445      3            
     31260   439.37839      3            
     31280   226.74473      3            
     31300   271.05409      3            
     31320   264.5665       3            
     31340   563.63778      3            
     31360   297.2215       3            
     31380   281.15202      3            
     31400   470.65227      3            
     31420   378.15348      3            
     31440   391.32517      3            
     31460   339.48413      3            
     31480   436.78406      3            
     31500   380.91341      3            
     31520   455.10313      3            
     31540   115.96464      3            
     31560   509.11357      3            
     31580   244.54179      3            
     31600   302.72516      3            
     31620   236.52666      3            
     31640   100.58963      3            
     31660   349.2268       3            
     31680   219.62649      3            
     31700   266.64552      3            
     31720   190.86227      3            
     31740   166.01551      3            
     31760   305.1068       3            
     31780   252.79711      3            
     31800   268.92026      3            
     31820   150.87057      3            
     31840   265.80063      3            
     31860   311.44832      3            
     31880   423.21707      3            
     31900   401.22168      3            
     31920   270.23437      3            
     31940   814.47247      3            
     31960   454.4113       3            
     31980   348.44126      3            
     32000   613.08617      3            
     32020   534.27759      3            
     32040   267.6555       3            
     32060   404.23044      3            
     32080   335.4655       3            
     32100   449.27682      3            
     32120   413.16887      3            
     32140   407.44502      3            
     32160   259.90317      3            
     32180   333.94455      3            
     32200   317.39009      3            
     32220   225.35102      3            
     32240   135.03791      3            
     32260   335.91959      3            
     32280   249.38796      3            
     32300   108.15789      3            
     32320   143.15507      3            
     32340   163.38064      3            
     32360   225.55005      3            
     32380   292.64968      3            
     32400   305.01064      3            
     32420   213.24255      3            
     32440   411.39681      3            
     32460   467.30498      3            
     32480   511.62551      3            
     32500   290.98706      3            
     32520   578.8973       3            
     32540   477.83832      3            
     32560   361.35763      3            
     32580   547.25481      3            
     32600   719.26872      3            
     32620   328.72191      3            
     32640   403.69535      3            
     32660   481.77612      3            
     32680   358.19051      3            
     32700   286.98449      3            
     32720   272.35834      3            
     32740   445.5254       3            
     32760   369.42879      3            
     32780   213.77903      3            
     32800   248.70317      3            
     32820   318.51374      3            
     32840   190.32323      3            
     32860   324.33062      3            
     32880   337.73806      3            
     32900   267.80544      3            
     32920   345.61133      3            
     32940   470.06771      3            
     32960   273.81237      3            
     32980   166.10186      3            
     33000   147.7687       3            
     33020   274.47077      3            
     33040   222.47474      3            
     33060   438.00505      3            
     33080   462.54063      3            
     33100   417.84182      3            
     33120   329.6939       3            
     33140   318.17589      3            
     33160   735.05039      3            
     33180   451.58195      3            
     33200   578.31056      3            
     33220   513.52962      3            
     33240   540.62757      3            
     33260   668.04292      3            
     33280   390.71325      3            
     33300   619.81509      3            
     33320   669.16779      3            
     33340   339.97271      3            
     33360   265.78322      3            
     33380   337.51804      3            
     33400   289.95917      3            
     33420   225.11795      3            
     33440   490.69636      3            
     33460   156.81416      3            
     33480   462.54644      3            
     33500   286.69538      3            
     33520   419.9025       3            
     33540   278.4514       3            
     33560   159.25727      3            
     33580   356.04451      3            
     33600   174.71255      3            
     33620   169.72658      3            
     33640   140.83083      3            
[...]
    991300   205.88133      3            
    991320   225.31422      3            
    991340   163.86136      3            
    991360   208.26357      3            
    991380   160.75221      3            
    991400   233.63789      3            
    991420   181.24017      3            
    991440   389.91184      3            
    991460   253.60668      3            
    991480   251.64072      3            
    991500   575.98769      3            
    991520   442.35431      3            
    991540   267.58933      3            
    991560   315.91664      3            
    991580   490.43611      3            
    991600   427.13776      3            
    991620   322.41282      3            
    991640   388.12611      3            
    991660   400.09863      3            
    991680   528.54783      3            
    991700   265.19057      3            
    991720   292.58183      3            
    991740   325.34707      3            
    991760   181.98107      3            
    991780   215.27118      3            
    991800   190.843        3            
    991820   132.5071       3            
    991840   102.48457      3            
    991860   172.63331      3            
    991880   143.5179       3            
    991900   210.5479       3            
    991920   204.88478      3            
    991940   213.03081      3            
    991960   143.44281      3            
    991980   130.97324      3            
    992000   289.06219      3            
    992020   182.16886      3            
    992040   145.79443      3            
    992060   296.2183       3            
    992080   318.98374      3            
    992100   231.27448      3            
    992120   396.00752      3            
    992140   120.96637      3            
    992160   305.59364      3            
    992180   335.81776      3            
    992200   274.39714      3            
    992220   194.27782      3            
    992240   290.26326      3            
    992260   145.98442      3            
    992280   313.71701      3            
    992300   247.69572      3            
    992320   371.73456      3            
    992340   355.68432      3            
    992360   260.56693      3            
    992380   392.51654      3            
    992400   324.57261      3            
    992420   270.76207      3            
    992440   331.28263      3            
    992460   183.33361      3            
    992480   111.68131      3            
    992500   88.844032      3            
    992520   109.65014      3            
    992540   114.24657      3            
    992560   130.66986      3            
    992580   203.0772       3            
    992600   191.37589      3            
    992620   270.63362      3            
    992640   226.56755      3            
    992660   149.04275      3            
    992680   222.25518      3            
    992700   104.00934      3            
    992720   250.45858      3            
    992740   430.16646      3            
    992760   249.6975       3            
    992780   320.99094      3            
    992800   385.87565      3            
    992820   337.46548      3            
    992840   545.98935      3            
    992860   305.10542      3            
    992880   481.54778      3            
    992900   429.16993      3            
    992920   469.85366      3            
    992940   278.76989      3            
    992960   280.4029       3            
    992980   323.93275      3            
    993000   486.41138      3            
    993020   312.52556      3            
    993040   154.81834      3            
    993060   214.38751      3            
    993080   240.48743      3            
    993100   190.20816      3            
    993120   152.63191      3            
    993140   98.411165      3            
    993160   180.30963      3            
    993180   194.90938      3            
    993200   242.14659      3            
    993220   212.58064      3            
    993240   119.67822      3            
    993260   158.75153      3            
    993280   69.678434      3            
    993300   126.37636      3            
    993320   135.48621      3            
    993340   140.27615      3            
    993360   195.72744      3            
    993380   219.64022      3            
    993400   323.62623      3            
    993420   168.77585      3            
    993440   85.516014      3            
    993460   288.19384      3            
    993480   279.26803      3            
    993500   280.92041      3            
    993520   404.54808      3            
    993540   500.3566       3            
    993560   424.65083      3            
    993580   411.17241      3            
    993600   394.08974      3            
    993620   528.62492      3            
    993640   336.39481      3            
    993660   288.99262      3            
    993680   147.28911      3            
    993700   278.55727      3            
    993720   549.03494      3            
    993740   237.16679      3            
    993760   193.32997      3            
    993780   551.21691      3            
    993800   349.98648      3            
    993820   86.002554      3            
    993840   244.73126      3            
    993860   157.96588      3            
    993880   275.14494      3            
    993900   202.54051      3            
    993920   232.63679      3            
    993940   73.333018      3            
    993960   218.42925      3            
    993980   113.22639      3            
    994000   242.91375      3            
    994020   135.57792      3            
    994040   112.02768      3            
    994060   201.26992      3            
    994080   139.31504      3            
    994100   319.35977      3            
    994120   190.23245      3            
    994140   312.56258      3            
    994160   233.45999      3            
    994180   338.61136      3            
    994200   468.35759      3            
    994220   281.24485      3            
    994240   283.34215      3            
    994260   266.49286      3            
    994280   350.76843      3            
    994300   311.42243      3            
    994320   478.49344      3            
    994340   350.53298      3            
    994360   451.8232       3            
    994380   292.61858      3            
    994400   338.68883      3            
    994420   439.47194      3            
    994440   146.02358      3            
    994460   355.23031      3            
    994480   277.06137      3            
    994500   190.17949      3            
    994520   213.49874      3            
    994540   96.438688      3            
    994560   258.54998      3            
    994580   78.055677      3            
    994600   150.05347      3            
    994620   205.68907      3            
    994640   144.62649      3            
    994660   249.99827      3            
    994680   125.52223      3            
    994700   375.69443      3            
    994720   260.8187       3            
    994740   277.42933      3            
    994760   450.23853      3            
    994780   206.86458      3            
    994800   541.07197      3            
    994820   255.81272      3            
    994840   487.04366      3            
    994860   358.90846      3            
    994880   672.3821       3            
    994900   191.47407      3            
    994920   376.11361      3            
    994940   324.55603      3            
    994960   424.6121       3            
    994980   202.50277      3            
    995000   350.46121      3            
    995020   349.59107      3            
    995040   325.75506      3            
    995060   238.96916      3            
    995080   228.92469      3            
    995100   279.92644      3            
    995120   236.57433      3            
    995140   156.80461      3            
    995160   199.28597      3            
    995180   244.86887      3            
    995200   226.6601       3            
    995220   118.90868      3            
    995240   271.73837      3            
    995260   215.421        3            
    995280   238.40298      3            
    995300   369.3919       3            
    995320   193.64091      3            
    995340   268.27827      3            
    995360   194.6055       3            
    995380   87.823115      3            
    995400   253.3796       3            
    995420   278.62741      3            
    995440   381.38937      3            
    995460   397.32164      3            
    995480   337.17314      3            
    995500   433.16297      3            
    995520   311.35216      3            
    995540   656.81138      3            
    995560   239.83471      3            
    995580   456.48237      3            
    995600   298.42066      3            
    995620   364.69844      3            
    995640   315.78488      3            
    995660   387.40319      3            
    995680   184.95106      3            
    995700   308.58707      3            
    995720   330.23201      3            
    995740   226.91187      3            
    995760   189.36372      3            
    995780   246.19748      3            
    995800   182.67985      3            
    995820   256.74091      3            
    995840   126.89226      3            
    995860   257.4402       3            
    995880   194.01185      3            
    995900   275.42865      3            
    995920   137.15105      3            
    995940   91.03009       3            
    995960   253.06323      3            
    995980   241.03883      3            
    996000   317.3584       3            
    996020   293.73365      3            
    996040   338.6618       3            
    996060   472.19605      3            
    996080   543.31313      3            
    996100   98.768733      3            
    996120   517.27343      3            
    996140   401.89152      3            
    996160   397.72648      3            
    996180   230.27676      3            
    996200   375.48969      3            
    996220   211.30793      3            
    996240   364.92585      3            
    996260   283.73614      3            
    996280   287.88465      3            
    996300   364.24618      3            
    996320   400.93039      3            
    996340   242.31762      3            
    996360   296.04814      3            
    996380   183.92021      3            
    996400   375.22772      3            
    996420   215.05518      3            
    996440   237.74776      3            
    996460   284.90219      3            
    996480   283.11552      3            
    996500   357.34043      3            
    996520   288.09643      3            
    996540   259.77226      3            
    996560   272.36043      3            
    996580   281.2183       3            
    996600   213.24548      3            
    996620   389.85801      3            
    996640   141.73734      3            
    996660   451.4946       3            
    996680   255.15555      3            
    996700   190.90071      3            
    996720   401.21893      3            
    996740   127.20384      3            
    996760   328.1168       3            
    996780   451.74743      3            
    996800   463.67496      3            
    996820   259.73495      3            
    996840   240.46228      3            
    996860   439.77075      3            
    996880   262.91521      3            
    996900   386.34882      3            
    996920   190.31097      3            
    996940   559.41114      3            
    996960   570.84087      3            
    996980   446.2286       3            
    997000   215.47625      3            
    997020   463.56563      3            
    997040   152.3018       3            
    997060   329.8066       3            
    997080   288.57722      3            
    997100   270.34747      3            
    997120   370.6267       3            
    997140   243.80524      3            
    997160   382.57642      3            
    997180   242.35602      3            
    997200   207.9642       3            
    997220   271.00882      3            
    997240   244.55713      3            
    997260   252.01926      3            
    997280   206.48089      3            
    997300   277.58924      3            
    997320   78.410629      3            
    997340   211.62191      3            
    997360   75.023715      3            
    997380   118.3448       3            
    997400   349.15942      3            
    997420   238.96057      3            
    997440   463.78433      3            
    997460   633.13537      3            
    997480   675.52464      3            
    997500   217.80339      3            
    997520   367.18988      3            
    997540   522.06656      3            
    997560   209.71783      3            
    997580   514.11021      3            
    997600   267.94319      3            
    997620   505.7672       3            
    997640   306.10012      3            
    997660   390.85542      3            
    997680   241.92781      3            
    997700   284.59971      3            
    997720   349.94188      3            
    997740   367.49138      3            
    997760   334.51849      3            
    997780   291.33721      3            
    997800   312.5072       3            
    997820   168.02663      3            
    997840   100.44462      3            
    997860   250.48623      3            
    997880   248.17889      3            
    997900   264.17508      3            
    997920   421.90427      3            
    997940   222.00898      3            
    997960   328.66092      3            
    997980   305.1007       3            
    998000   625.67417      3            
    998020   335.74006      3            
    998040   510.68662      3            
    998060   410.5763       3            
    998080   523.17012      3            
    998100   517.60857      3            
    998120   452.07283      3            
    998140   465.93143      3            
    998160   179.75514      3            
    998180   408.47286      3            
    998200   293.6191       3            
    998220   459.03931      3            
    998240   196.3544       3            
    998260   176.12302      3            
    998280   338.13932      3            
    998300   229.32028      3            
    998320   151.04335      3            
    998340   246.08252      3            
    998360   291.81694      3            
    998380   167.37269      3            
    998400   285.8652       3            
    998420   366.84085      3            
    998440   362.50562      3            
    998460   389.85162      3            
    998480   111.29334      3            
    998500   283.7275       3            
    998520   364.535        3            
    998540   407.39775      3            
    998560   506.28983      3            
    998580   197.88605      3            
    998600   400.51753      3            
    998620   292.32689      3            
    998640   607.35044      3            
    998660   492.95063      3            
    998680   372.29527      3            
    998700   589.42363      3            
    998720   284.85597      3            
    998740   387.11265      3            
    998760   239.1105       3            
    998780   458.20552      3            
    998800   289.95892      3            
    998820   386.17228      3            
    998840   302.6317       3            
    998860   354.69577      3            
    998880   176.12746      3            
    998900   316.00124      3            
    998920   104.85387      3            
    998940   497.99498      3            
    998960   262.80795      3            
    998980   254.31968      3            
    999000   154.416        3            
    999020   222.44392      3            
    999040   395.42373      3            
    999060   146.8441       3            
    999080   262.69069      3            
    999100   135.5235       3            
    999120   265.92605      3            
    999140   374.86368      3            
    999160   355.22031      3            
    999180   352.66471      3            
    999200   263.56869      3            
    999220   199.50633      3            
    999240   386.95257      3            
    999260   348.17032      3            
    999280   174.46817      3            
    999300   263.84528      3            
    999320   519.82244      3            
    999340   405.57368      3            
    999360   435.49767      3            
    999380   422.54267      3            
    999400   474.2705       3            
    999420   419.41105      3            
    999440   591.5284       3            
    999460   296.88644      3            
    999480   409.11268      3            
    999500   443.01877      3            
    999520   443.42102      3            
    999540   268.24218      3            
    999560   420.12047      3            
    999580   324.48918      3            
    999600   334.43192      3            
    999620   389.06594      3            
    999640   240.04254      3            
    999660   95.47047       3            
    999680   201.40306      3            
    999700   69.29697       3            
    999720   123.34426      3            
    999740   127.27232      3            
    999760   152.37564      3            
    999780   283.0074       3            
    999800   294.61933      3            
    999820   212.86124      3            
    999840   292.54043      3            
    999860   432.6708       3            
    999880   450.90882      3            
    999900   296.54343      3            
    999920   284.74784      3            
    999940   288.8481       3            
    999960   546.89261      3            
    999980   343.07247      3            
   1000000   280.85287      3            
   1000020   533.06465      3            
   1000038   473.54171      3            
Loop time of 6.92213 on 1 procs for 1000000 steps with 5 atoms

Performance: 12481.705 ns/day, 0.002 hours/ns, 144464.183 timesteps/s, 722.321 katom-step/s
55.3% CPU use with 1 MPI tasks x no OpenMP threads

MPI task timing breakdown:
Section |  min time  |  avg time  |  max time  |%varavg| %total
---------------------------------------------------------------
Pair    | 0.38426    | 0.38426    | 0.38426    |   0.0 |  5.55
Bond    | 0.085392   | 0.085392   | 0.085392   |   0.0 |  1.23
Neigh   | 0.0050843  | 0.0050843  | 0.0050843  |   0.0 |  0.07
Comm    | 0.76439    | 0.76439    | 0.76439    |   0.0 | 11.04
Output  | 1.3971     | 1.3971     | 1.3971     |   0.0 | 20.18
Modify  | 3.6525     | 3.6525     | 3.6525     |   0.0 | 52.77
Other   |            | 0.6334     |            |       |  9.15

Nlocal:              5 ave           5 max           5 min
Histogram: 1 0 0 0 0 0 0 0 0 0
Nghost:             85 ave          85 max          85 min
Histogram: 1 0 0 0 0 0 0 0 0 0
Neighs:             10 ave          10 max          10 min
Histogram: 1 0 0 0 0 0 0 0 0 0
FullNghs:            0 ave           0 max           0 min
Histogram: 1 0 0 0 0 0 0 0 0 0

Total # of neighbors = 10
Ave neighs/atom = 2
Ave special neighs/atom = 0
Neighbor list builds = 818
Dangerous builds = 0

#####################################################

# 3 options for the reaction:
  # 1 story telling avec fix/react et 5 atoms EN COURS
  # 2 story telling avec fix/react et 2 molecules
  # 3 envoyer un mail  Jacob Gissinger  FAIT
  # 4 tenter la mthode nave 
Total wall time: 0:00:07
