ITEM: TIMESTEP
0
ITEM: NUMBER OF ATOMS
100
ITEM: BOX BOUNDS ff ff ff
0.0000000000000000e+00 1.5850000000000000e+02
0.0000000000000000e+00 1.5850000000000000e+02
0.0000000000000000e+00 1.5850000000000000e+02
ITEM: ATOMS id type xs ys zs
1 2 0.258298 0.260492 0.239938
2 3 0.258682 0.261874 0.249382
3 1 0.267542 0.264629 0.251791
4 1 0.267021 0.266416 0.261358
5 2 0.275641 0.269087 0.264542
6 1 0.27527 0.271674 0.273783
7 1 0.283959 0.275004 0.276461
8 3 0.283384 0.278867 0.285327
9 1 0.291819 0.283066 0.287609
10 2 0.291737 0.287411 0.296295
11 3 0.299882 0.292577 0.297385
12 3 0.299954 0.297001 0.305996
13 2 0.307805 0.302593 0.306023
14 3 0.309207 0.306534 0.314678
16 3 0.317462 0.3171 0.32274
15 2 0.316564 0.312524 0.314229
17 2 0.324976 0.323023 0.322625
18 3 0.325624 0.327982 0.330927
19 2 0.332716 0.334398 0.329759
20 2 0.334176 0.338771 0.338382
21 3 0.340578 0.346048 0.337378
22 3 0.342032 0.350125 0.345959
23 2 0.348343 0.357557 0.34516
24 1 0.350653 0.360768 0.353854
25 1 0.356431 0.368367 0.353313
26 2 0.359436 0.371019 0.362017
27 1 0.365677 0.378339 0.360875
28 3 0.368711 0.382029 0.369314
29 3 0.374963 0.389299 0.36843
30 2 0.3773 0.392339 0.377249
31 3 0.384024 0.39928 0.377211
32 3 0.385115 0.402503 0.386193
33 2 0.391716 0.409616 0.386479
34 2 0.392593 0.412739 0.395581
35 1 0.399051 0.419809 0.395809
36 1 0.400585 0.421922 0.405261
37 1 0.40617 0.429653 0.406277
38 3 0.408067 0.431573 0.415523
39 3 0.41452 0.438798 0.415904
40 1 0.416202 0.441447 0.425048
41 1 0.421572 0.449231 0.425441
42 1 0.423125 0.45172 0.434633
43 2 0.428199 0.460145 0.434646
44 3 0.430968 0.462432 0.443802
45 1 0.436336 0.470496 0.443589
46 1 0.440753 0.472417 0.452038
47 3 0.446565 0.479958 0.451035
48 1 0.450912 0.48157 0.45952
49 3 0.457277 0.488971 0.458887
50 3 0.462138 0.489811 0.467212
51 2 0.468407 0.497088 0.466673
52 3 0.471915 0.498597 0.47571
53 2 0.477673 0.506315 0.476029
54 3 0.482249 0.506242 0.484759
55 2 0.487739 0.514063 0.485241
56 1 0.493091 0.513728 0.493194
57 1 0.499503 0.520858 0.492915
58 2 0.504477 0.520669 0.501052
59 2 0.512029 0.526698 0.500813
60 3 0.516 0.526233 0.509613
61 3 0.523195 0.532802 0.510291
62 3 0.52757 0.532078 0.518896
63 2 0.533871 0.539251 0.51996
64 3 0.538408 0.5383 0.528215
65 1 0.545001 0.545401 0.529552
66 3 0.549531 0.544111 0.537985
68 3 0.560345 0.55035 0.547569
67 1 0.555315 0.551759 0.539579
69 1 0.565618 0.558245 0.549365
70 2 0.570632 0.557376 0.557788
71 1 0.576364 0.564918 0.559418
72 1 0.580588 0.564268 0.56798
73 2 0.586503 0.571871 0.568897
74 2 0.591312 0.571175 0.577135
75 2 0.596699 0.579121 0.578412
76 3 0.601446 0.579151 0.586851
77 1 0.606604 0.587413 0.587413
78 3 0.611088 0.587661 0.595966
79 1 0.615862 0.596102 0.596435
80 2 0.620097 0.597431 0.605059
81 1 0.624775 0.605776 0.605176
82 1 0.628729 0.607078 0.613904
83 3 0.632189 0.616015 0.614673
84 1 0.635917 0.616894 0.623583
85 3 0.639738 0.625805 0.624391
86 1 0.642928 0.626828 0.633436
87 1 0.645774 0.635994 0.634546
88 3 0.648846 0.637412 0.643633
89 1 0.652386 0.646549 0.644321
90 3 0.654991 0.647871 0.653345
91 1 0.659035 0.656589 0.654304
92 3 0.661503 0.657798 0.663595
94 2 0.6666 0.667759 0.674483
93 2 0.665141 0.666601 0.664926
95 3 0.668842 0.677152 0.676074
96 3 0.669217 0.678742 0.685669
97 2 0.671711 0.687844 0.687781
98 1 0.671793 0.6892 0.697385
99 3 0.674258 0.698524 0.699045
100 1 0.674146 0.700285 0.708577
ITEM: TIMESTEP
100
ITEM: NUMBER OF ATOMS
100
ITEM: BOX BOUNDS ff ff ff
0.0000000000000000e+00 1.5850000000000000e+02
0.0000000000000000e+00 1.5850000000000000e+02
0.0000000000000000e+00 1.5850000000000000e+02
ITEM: ATOMS id type xs ys zs
1 2 0.257552 0.257382 0.241294
2 3 0.257844 0.259708 0.250652
3 1 0.266339 0.263804 0.252694
4 1 0.266628 0.266178 0.262045
5 2 0.275133 0.270296 0.264038
6 1 0.275412 0.272832 0.273351
7 1 0.283847 0.277133 0.275211
8 3 0.284088 0.279991 0.284422
9 1 0.292375 0.284661 0.286038
10 2 0.2926 0.287954 0.295106
11 3 0.300689 0.29308 0.296316
12 3 0.300971 0.29687 0.305189
13 2 0.308812 0.302457 0.305833
14 3 0.309213 0.306744 0.314468
16 3 0.317423 0.317303 0.323003
15 2 0.31681 0.312697 0.314543
17 2 0.324829 0.323478 0.322608
18 3 0.325645 0.328226 0.330968
19 2 0.332892 0.334561 0.330273
20 2 0.333886 0.339317 0.338611
21 3 0.341045 0.34574 0.337789
22 3 0.342233 0.350324 0.346198
23 2 0.349351 0.356788 0.345376
24 1 0.350718 0.361094 0.353904
25 1 0.35779 0.367621 0.353187
26 2 0.35927 0.371582 0.361861
27 1 0.366268 0.378208 0.361324
28 3 0.367812 0.381819 0.370135
29 3 0.374683 0.388591 0.369785
30 2 0.376196 0.39195 0.378705
31 3 0.382864 0.398923 0.378503
32 3 0.384328 0.402087 0.387502
33 2 0.390801 0.40924 0.387453
34 2 0.392282 0.412201 0.396509
35 1 0.398616 0.419479 0.396564
36 1 0.400173 0.422259 0.405675
37 1 0.406356 0.429666 0.405764
38 3 0.408006 0.432347 0.414888
39 3 0.414039 0.43988 0.414961
40 1 0.415845 0.442489 0.424072
41 1 0.421806 0.45008 0.424079
42 1 0.42387 0.452568 0.433174
43 2 0.429826 0.460156 0.433111
44 3 0.432218 0.462467 0.442178
45 1 0.438251 0.469993 0.442038
46 1 0.441055 0.472071 0.451036
47 3 0.447241 0.47947 0.450801
48 1 0.450477 0.481286 0.459704
49 3 0.456868 0.488509 0.459344
50 3 0.460487 0.490051 0.468158
51 2 0.467088 0.497082 0.467733
52 3 0.47099 0.498319 0.47647
53 2 0.477811 0.50513 0.47605
54 3 0.481904 0.506013 0.484741
55 2 0.488909 0.512642 0.48441
56 1 0.493099 0.513175 0.493085
57 1 0.500219 0.519688 0.492934
58 2 0.504404 0.519892 0.501628
59 2 0.511573 0.526353 0.501714
60 3 0.51568 0.526269 0.510446
61 3 0.522849 0.532723 0.510813
62 3 0.526887 0.532487 0.519584
63 2 0.533997 0.538984 0.520126
64 3 0.537899 0.538633 0.528945
65 1 0.544955 0.545183 0.529641
66 3 0.54882 0.544804 0.538472
68 3 0.559716 0.551072 0.548018
67 1 0.555835 0.551396 0.539184
69 1 0.566632 0.557772 0.548698
70 2 0.570485 0.557602 0.557545
71 1 0.577177 0.56453 0.558213
72 1 0.580953 0.56459 0.567095
73 2 0.587349 0.571787 0.567751
74 2 0.591055 0.572099 0.576659
75 2 0.597142 0.579565 0.577264
76 3 0.600808 0.580132 0.586174
77 1 0.606579 0.58785 0.586695
78 3 0.610224 0.588643 0.595598
79 1 0.615691 0.596584 0.596058
80 2 0.619265 0.597577 0.604967
81 1 0.624365 0.605758 0.605444
82 1 0.627779 0.606931 0.614393
83 3 0.6325 0.615329 0.614937
84 1 0.635728 0.616628 0.623939
85 3 0.640087 0.625215 0.62458
86 1 0.643134 0.626591 0.633633
87 1 0.647073 0.635368 0.634423
88 3 0.649821 0.63681 0.643561
89 1 0.65325 0.64578 0.644558
90 3 0.655628 0.647246 0.653796
91 1 0.658609 0.656348 0.655004
92 3 0.660645 0.657806 0.664329
94 2 0.665039 0.668419 0.675093
93 2 0.663285 0.666988 0.665708
95 3 0.667459 0.677644 0.676591
96 3 0.669049 0.679031 0.686011
97 2 0.671381 0.688266 0.687584
98 1 0.672895 0.689619 0.69702
99 3 0.675207 0.69885 0.698638
100 1 0.676694 0.700179 0.708086
ITEM: TIMESTEP
200
ITEM: NUMBER OF ATOMS
100
ITEM: BOX BOUNDS ff ff ff
0.0000000000000000e+00 1.5850000000000000e+02
0.0000000000000000e+00 1.5850000000000000e+02
0.0000000000000000e+00 1.5850000000000000e+02
ITEM: ATOMS id type xs ys zs
1 2 0.256107 0.254528 0.2429
2 3 0.256987 0.257147 0.252151
3 1 0.26517 0.262127 0.253327
4 1 0.26604 0.264761 0.262574
5 2 0.274207 0.269773 0.263738
6 1 0.275056 0.272464 0.272973
7 1 0.283155 0.277592 0.274092
8 3 0.28394 0.28045 0.283278
9 1 0.291917 0.285791 0.284281
10 2 0.292637 0.288908 0.293391
11 3 0.300486 0.294464 0.294205
12 3 0.301177 0.297895 0.3032
13 2 0.308894 0.303667 0.303752
14 3 0.309606 0.307412 0.312619
16 3 0.317958 0.317388 0.321619
15 2 0.317187 0.31338 0.312871
17 2 0.325391 0.323547 0.321588
18 3 0.326208 0.327756 0.330234
19 2 0.333485 0.334092 0.329979
20 2 0.334344 0.338409 0.338567
21 3 0.341506 0.344871 0.338179
22 3 0.342396 0.349231 0.346744
23 2 0.349484 0.355767 0.346297
24 1 0.350437 0.360079 0.354878
25 1 0.357509 0.366633 0.354428
26 2 0.358566 0.370819 0.36306
27 1 0.365639 0.377376 0.362636
28 3 0.36678 0.381425 0.371324
29 3 0.373827 0.388008 0.37095
30 2 0.37501 0.391914 0.379699
31 3 0.38202 0.398542 0.379395
32 3 0.383207 0.402317 0.388201
33 2 0.390162 0.409007 0.387974
34 2 0.391356 0.412657 0.396832
35 1 0.398251 0.419408 0.396667
36 1 0.399477 0.422927 0.405571
37 1 0.406312 0.429739 0.405453
38 3 0.407581 0.433144 0.414394
39 3 0.414349 0.440026 0.414306
40 1 0.415686 0.443325 0.423278
41 1 0.422411 0.450242 0.423196
42 1 0.423891 0.453403 0.432193
43 2 0.430641 0.4603 0.432099
44 3 0.432371 0.463249 0.441122
45 1 0.439236 0.470033 0.441009
46 1 0.441295 0.472696 0.450054
47 3 0.448325 0.479307 0.449917
48 1 0.450709 0.481673 0.458965
49 3 0.457903 0.488105 0.458801
50 3 0.460557 0.490216 0.467839
51 2 0.467879 0.496502 0.467643
52 3 0.470775 0.498364 0.476662
53 2 0.478228 0.504493 0.476444
54 3 0.481383 0.50604 0.485436
55 2 0.488992 0.511977 0.485217
56 1 0.492369 0.513184 0.494179
57 1 0.50011 0.518949 0.493981
58 2 0.503633 0.51986 0.50292
59 2 0.511451 0.525523 0.502782
60 3 0.515017 0.526231 0.511722
61 3 0.522841 0.531896 0.511674
62 3 0.526393 0.532509 0.52063
63 2 0.534149 0.538255 0.520668
64 3 0.537671 0.538802 0.529638
65 1 0.545342 0.54466 0.529761
66 3 0.548834 0.545187 0.538746
68 3 0.559846 0.551753 0.547921
67 1 0.55639 0.551192 0.538926
69 1 0.567252 0.55794 0.548152
70 2 0.570622 0.558595 0.557175
71 1 0.577845 0.564993 0.557467
72 1 0.581084 0.565776 0.566526
73 2 0.588096 0.572401 0.566887
74 2 0.591201 0.573306 0.57598
75 2 0.597994 0.580152 0.576402
76 3 0.600968 0.581182 0.585527
77 1 0.607524 0.588253 0.585999
78 3 0.610351 0.589426 0.595152
79 1 0.616624 0.596747 0.595668
80 2 0.619261 0.598099 0.604853
81 1 0.625197 0.605691 0.605416
82 1 0.627602 0.607224 0.614637
83 3 0.633165 0.615089 0.615266
84 1 0.635275 0.616785 0.624532
85 3 0.640444 0.624905 0.625249
86 1 0.642254 0.626729 0.634555
87 1 0.647071 0.635056 0.635359
88 3 0.648636 0.636949 0.644695
89 1 0.653142 0.645438 0.645586
90 3 0.654468 0.647368 0.654952
91 1 0.658679 0.655997 0.655944
92 3 0.659758 0.657952 0.665337
94 2 0.664561 0.668677 0.675822
93 2 0.663698 0.666695 0.666412
95 3 0.6683 0.677505 0.676946
96 3 0.669048 0.679501 0.68636
97 2 0.67271 0.688361 0.687495
98 1 0.67345 0.690364 0.696908
99 3 0.677093 0.699233 0.69803
100 1 0.677859 0.701238 0.707443
ITEM: TIMESTEP
300
ITEM: NUMBER OF ATOMS
100
ITEM: BOX BOUNDS ff ff ff
0.0000000000000000e+00 1.5850000000000000e+02
0.0000000000000000e+00 1.5850000000000000e+02
0.0000000000000000e+00 1.5850000000000000e+02
ITEM: ATOMS id type xs ys zs
1 2 0.255791 0.25334 0.243672
2 3 0.256893 0.256008 0.252883
3 1 0.264827 0.261438 0.25374
4 1 0.265921 0.264113 0.262951
5 2 0.273836 0.269573 0.263796
6 1 0.274917 0.272292 0.272994
7 1 0.282785 0.277825 0.273798
8 3 0.283831 0.280661 0.282965
9 1 0.291623 0.286311 0.283688
10 2 0.292635 0.289317 0.292805
11 3 0.300316 0.295135 0.293393
12 3 0.301314 0.298347 0.302441
13 2 0.308864 0.304349 0.302854
14 3 0.309839 0.307791 0.31182
16 3 0.31823 0.317609 0.320928
15 2 0.31726 0.31396 0.312044
17 2 0.325515 0.323941 0.32097
18 3 0.32648 0.327758 0.329783
19 2 0.333641 0.334228 0.329674
20 2 0.334581 0.338194 0.338423
21 3 0.341632 0.344782 0.338187
22 3 0.342586 0.348837 0.346895
23 2 0.34956 0.355504 0.346571
24 1 0.350557 0.359577 0.355265
25 1 0.357508 0.366265 0.354895
26 2 0.358576 0.370309 0.363595
27 1 0.365512 0.37701 0.363188
28 3 0.366654 0.381005 0.3719
29 3 0.373562 0.387734 0.371477
30 2 0.374739 0.391672 0.38021
31 3 0.381612 0.398436 0.379805
32 3 0.382817 0.402292 0.388571
33 2 0.389676 0.409074 0.38822
34 2 0.390916 0.412811 0.397033
35 1 0.397783 0.419588 0.396758
36 1 0.399076 0.423176 0.405626
37 1 0.405937 0.429961 0.405416
38 3 0.407286 0.433422 0.414325
39 3 0.414145 0.440212 0.414157
40 1 0.415571 0.443559 0.423098
41 1 0.422437 0.45034 0.422944
42 1 0.423988 0.45355 0.431914
43 2 0.430912 0.460274 0.431775
44 3 0.43265 0.463291 0.440778
45 1 0.439682 0.469902 0.44066
46 1 0.441646 0.47268 0.449694
47 3 0.448823 0.479135 0.449587
48 1 0.451032 0.481647 0.458642
49 3 0.45835 0.487942 0.458546
50 3 0.4608 0.490169 0.467613
51 2 0.468262 0.496291 0.467519
52 3 0.47095 0.49823 0.476584
53 2 0.478551 0.504178 0.476473
54 3 0.481478 0.505835 0.485519
55 2 0.489212 0.511609 0.485391
56 1 0.492355 0.512977 0.494414
57 1 0.500192 0.51861 0.494277
58 2 0.503501 0.519735 0.503275
59 2 0.511407 0.525272 0.503137
60 3 0.514824 0.52622 0.512115
61 3 0.522725 0.531762 0.512005
62 3 0.526183 0.532601 0.520979
63 2 0.534046 0.538198 0.520911
64 3 0.537484 0.538997 0.529895
65 1 0.545275 0.544696 0.529882
66 3 0.548697 0.545472 0.538875
68 3 0.559774 0.552077 0.547923
67 1 0.556411 0.551275 0.538911
69 1 0.567382 0.558018 0.548029
70 2 0.570639 0.558891 0.557075
71 1 0.578069 0.56505 0.557263
72 1 0.581171 0.566053 0.566349
73 2 0.58839 0.572456 0.566625
74 2 0.591292 0.573605 0.575759
75 2 0.598294 0.580239 0.576134
76 3 0.600999 0.581508 0.585313
77 1 0.607781 0.58836 0.585777
78 3 0.610294 0.589756 0.594992
79 1 0.616824 0.596844 0.595535
80 2 0.619088 0.598398 0.604789
81 1 0.625317 0.605745 0.605419
82 1 0.627264 0.607494 0.614711
83 3 0.633161 0.615103 0.615416
84 1 0.634805 0.617019 0.624733
85 3 0.640374 0.624866 0.625503
86 1 0.641741 0.626894 0.63484
87 1 0.647024 0.634928 0.63569
88 3 0.648111 0.637041 0.645045
89 1 0.653117 0.645242 0.645968
90 3 0.653949 0.647433 0.655332
91 1 0.658697 0.655781 0.656303
92 3 0.659315 0.658039 0.665668
94 2 0.66431 0.668805 0.676033
93 2 0.663861 0.666495 0.666671
95 3 0.668745 0.677319 0.677047
96 3 0.669105 0.679675 0.686401
97 2 0.673457 0.688234 0.687401
98 1 0.67379 0.690607 0.696752
99 3 0.67813 0.69917 0.697754
100 1 0.678439 0.701547 0.707105
ITEM: TIMESTEP
400
ITEM: NUMBER OF ATOMS
100
ITEM: BOX BOUNDS ff ff ff
0.0000000000000000e+00 1.5850000000000000e+02
0.0000000000000000e+00 1.5850000000000000e+02
0.0000000000000000e+00 1.5850000000000000e+02
ITEM: ATOMS id type xs ys zs
1 2 0.255474 0.25175 0.244808
2 3 0.257041 0.254353 0.253972
3 1 0.264446 0.260535 0.254355
4 1 0.266014 0.263115 0.263524
5 2 0.273411 0.269305 0.263926
6 1 0.274967 0.27188 0.2731
7 1 0.282333 0.278104 0.273501
8 3 0.283857 0.280727 0.282666
9 1 0.291161 0.287027 0.283034
10 2 0.292643 0.289746 0.292179
11 3 0.299881 0.296127 0.292487
12 3 0.301337 0.298957 0.301601
13 2 0.308502 0.305423 0.301833
14 3 0.309934 0.308375 0.310912
16 3 0.318405 0.318033 0.320091
15 2 0.31701 0.31494 0.311054
17 2 0.325377 0.324708 0.320135
18 3 0.326739 0.327941 0.329128
19 2 0.333605 0.334728 0.329063
20 2 0.334945 0.338089 0.338012
21 3 0.341695 0.344984 0.337839
22 3 0.343012 0.348459 0.346748
23 2 0.34967 0.355445 0.346501
24 1 0.350974 0.358998 0.355381
25 1 0.357565 0.366041 0.355066
26 2 0.358884 0.369648 0.36392
27 1 0.365424 0.376736 0.363543
28 3 0.36676 0.380394 0.372374
29 3 0.373259 0.387518 0.37195
30 2 0.374615 0.391194 0.380771
31 3 0.381109 0.398319 0.380314
32 3 0.382507 0.401976 0.389137
33 2 0.389027 0.40908 0.388691
34 2 0.390473 0.412676 0.397532
35 1 0.397042 0.419739 0.397121
36 1 0.398546 0.423238 0.40599
37 1 0.405192 0.430228 0.405621
38 3 0.406809 0.433602 0.41452
39 3 0.413554 0.440499 0.414193
40 1 0.415292 0.443728 0.423121
41 1 0.422132 0.450534 0.422826
42 1 0.42398 0.453606 0.431792
43 2 0.430912 0.460321 0.431552
44 3 0.432894 0.463196 0.440551
45 1 0.439951 0.469779 0.440379
46 1 0.442108 0.472397 0.449415
47 3 0.449315 0.478816 0.449295
48 1 0.451652 0.481179 0.458357
49 3 0.458993 0.487444 0.458278
50 3 0.461491 0.489584 0.467353
51 2 0.468941 0.495721 0.467287
52 3 0.471597 0.49765 0.476364
53 2 0.479162 0.503643 0.476298
54 3 0.482 0.505343 0.485365
55 2 0.48969 0.511175 0.485291
56 1 0.492715 0.512641 0.494337
57 1 0.500514 0.518325 0.494234
58 2 0.503691 0.519593 0.503259
59 2 0.511559 0.525182 0.503151
60 3 0.514819 0.526304 0.512165
61 3 0.52272 0.531851 0.512079
62 3 0.526022 0.532872 0.521089
63 2 0.533925 0.538412 0.521021
64 3 0.537253 0.539347 0.530032
65 1 0.545146 0.544902 0.530001
66 3 0.54847 0.545804 0.539016
68 3 0.559585 0.552376 0.548045
67 1 0.556307 0.551438 0.539014
69 1 0.567305 0.558168 0.548089
70 2 0.570483 0.559197 0.557145
71 1 0.578047 0.56519 0.557269
72 1 0.581068 0.566324 0.566366
73 2 0.588441 0.57255 0.56659
74 2 0.591248 0.573819 0.575735
75 2 0.598393 0.580299 0.576085
76 3 0.600941 0.581721 0.585285
77 1 0.607839 0.588457 0.585765
78 3 0.610099 0.590029 0.595015
79 1 0.61674 0.597007 0.595617
80 2 0.618699 0.598737 0.604912
81 1 0.625069 0.605955 0.605618
82 1 0.626725 0.607845 0.614938
83 3 0.632817 0.615292 0.615716
84 1 0.63417 0.617349 0.62505
85 3 0.639995 0.625 0.625877
86 1 0.641072 0.627199 0.635212
87 1 0.646646 0.635032 0.636075
88 3 0.647486 0.637341 0.64541
89 1 0.652854 0.645313 0.646306
90 3 0.653489 0.647702 0.655637
91 1 0.658681 0.655786 0.656565
92 3 0.659126 0.658253 0.665885
94 2 0.664453 0.668977 0.676132
93 2 0.664153 0.66644 0.666823
95 3 0.66935 0.677241 0.677068
96 3 0.669571 0.679809 0.68637
97 2 0.674434 0.688093 0.687312
98 1 0.674653 0.690653 0.696617
99 3 0.679525 0.698931 0.697565
100 1 0.679769 0.701476 0.706873
ITEM: TIMESTEP
500
ITEM: NUMBER OF ATOMS
100
ITEM: BOX BOUNDS ff ff ff
0.0000000000000000e+00 1.5850000000000000e+02
0.0000000000000000e+00 1.5850000000000000e+02
0.0000000000000000e+00 1.5850000000000000e+02
ITEM: ATOMS id type xs ys zs
1 2 0.255453 0.249858 0.246165
2 3 0.257487 0.252417 0.255247
3 1 0.264196 0.259356 0.255218
4 1 0.266245 0.261884 0.264306
5 2 0.272955 0.268822 0.264296
6 1 0.275014 0.27131 0.273393
7 1 0.281722 0.278252 0.273401
8 3 0.283797 0.280718 0.282502
9 1 0.290497 0.287669 0.282511
10 2 0.292575 0.290138 0.29161
11 3 0.29926 0.297103 0.291616
12 3 0.301311 0.29959 0.300715
13 2 0.30796 0.306589 0.300733
14 3 0.309956 0.309107 0.309835
16 3 0.318502 0.318694 0.31897
15 2 0.316565 0.316141 0.309865
17 2 0.32507 0.325769 0.318999
18 3 0.32695 0.328386 0.328098
19 2 0.333444 0.335528 0.328107
20 2 0.335245 0.33826 0.33719
21 3 0.341626 0.345502 0.337146
22 3 0.343334 0.348381 0.346201
23 2 0.349608 0.355717 0.346092
24 1 0.351248 0.358734 0.355114
25 1 0.357448 0.366131 0.354929
26 2 0.359055 0.369266 0.363917
27 1 0.365204 0.376702 0.363636
28 3 0.366805 0.379948 0.372586
29 3 0.372912 0.387414 0.372219
30 2 0.37452 0.390745 0.381135
31 3 0.380609 0.398223 0.380704
32 3 0.382243 0.40158 0.389607
33 2 0.388366 0.409029 0.389153
34 2 0.390081 0.412345 0.398054
35 1 0.396306 0.419709 0.397606
36 1 0.398135 0.422936 0.406518
37 1 0.404482 0.430195 0.406069
38 3 0.406437 0.433319 0.414989
39 3 0.412914 0.440463 0.414549
40 1 0.41501 0.443461 0.423482
41 1 0.421653 0.45045 0.423062
42 1 0.423906 0.453266 0.432014
43 2 0.430723 0.46009 0.431639
44 3 0.433113 0.462705 0.440617
45 1 0.440068 0.469389 0.440317
46 1 0.44257 0.471788 0.449326
47 3 0.449663 0.478329 0.449098
48 1 0.45228 0.480495 0.458132
49 3 0.459518 0.486879 0.457978
50 3 0.462255 0.488819 0.467029
51 2 0.469605 0.495074 0.466925
52 3 0.472449 0.496825 0.475983
53 2 0.479895 0.502967 0.475899
54 3 0.482857 0.504545 0.48495
55 2 0.490401 0.510568 0.484882
56 1 0.493478 0.511973 0.493923
57 1 0.5011 0.517898 0.493858
58 2 0.504276 0.519153 0.502888
59 2 0.511962 0.524994 0.502837
60 3 0.515227 0.526097 0.511855
61 3 0.522966 0.531867 0.511817
62 3 0.526294 0.532828 0.520828
63 2 0.534046 0.538578 0.520822
64 3 0.537393 0.539453 0.529834
65 1 0.545114 0.545247 0.529886
66 3 0.548427 0.54608 0.538913
68 3 0.559382 0.552746 0.548059
67 1 0.556106 0.551926 0.539017
69 1 0.56699 0.558683 0.548214
70 2 0.570178 0.55957 0.557282
71 1 0.57765 0.565677 0.557504
72 1 0.580658 0.566718 0.566615
73 2 0.587944 0.573044 0.566924
74 2 0.590721 0.574253 0.576088
75 2 0.597828 0.580771 0.576507
76 3 0.600362 0.582117 0.585723
77 1 0.607265 0.588842 0.586258
78 3 0.609522 0.590359 0.59552
79 1 0.616167 0.597331 0.59614
80 2 0.618105 0.599077 0.605434
81 1 0.624446 0.606323 0.606124
82 1 0.626065 0.608274 0.615438
83 3 0.632129 0.615747 0.616184
84 1 0.633468 0.617856 0.62551
85 3 0.639312 0.625497 0.626302
86 1 0.640432 0.627717 0.63563
87 1 0.646102 0.635484 0.636455
88 3 0.647024 0.637809 0.645778
89 1 0.652534 0.645692 0.646611
90 3 0.653272 0.648121 0.655923
91 1 0.658641 0.656099 0.656767
92 3 0.659214 0.658608 0.66607
94 2 0.664974 0.669184 0.676235
93 2 0.664485 0.666649 0.666933
95 3 0.670203 0.677251 0.677109
96 3 0.670663 0.679803 0.686406
97 2 0.675873 0.687883 0.687269
98 1 0.676336 0.690456 0.696562
99 3 0.681539 0.698544 0.697401
100 1 0.682005 0.701133 0.706689
ITEM: TIMESTEP
600
ITEM: NUMBER OF ATOMS
100
ITEM: BOX BOUNDS ff ff ff
0.0000000000000000e+00 1.5850000000000000e+02
0.0000000000000000e+00 1.5850000000000000e+02
0.0000000000000000e+00 1.5850000000000000e+02
ITEM: ATOMS id type xs ys zs
1 2 0.255555 0.248259 0.247225
2 3 0.257921 0.250795 0.256233
3 1 0.264143 0.25817 0.255973
4 1 0.266522 0.260689 0.264981
5 2 0.272767 0.268044 0.26473
6 1 0.275168 0.270525 0.273743
7 1 0.28143 0.277866 0.27351
8 3 0.28382 0.280326 0.282532
9 1 0.290061 0.287687 0.282329
10 2 0.292434 0.290124 0.291362
11 3 0.298659 0.297499 0.291193
12 3 0.301042 0.299894 0.300235
13 2 0.307267 0.30727 0.300086
14 3 0.309674 0.309625 0.309133
16 3 0.318268 0.319356 0.318059
15 2 0.315889 0.317009 0.309004
17 2 0.324424 0.326791 0.317966
18 3 0.32672 0.329163 0.327037
19 2 0.332804 0.336657 0.326976
20 2 0.33502 0.339068 0.336056
21 3 0.341036 0.346616 0.336012
22 3 0.343183 0.349076 0.345096
23 2 0.349121 0.356686 0.345052
24 1 0.351195 0.35922 0.354133
25 1 0.357024 0.366914 0.354058
26 2 0.359034 0.369552 0.363123
27 1 0.364777 0.37731 0.362995
28 3 0.366755 0.380037 0.372041
29 3 0.372457 0.387824 0.371856
30 2 0.374457 0.390599 0.380883
31 3 0.38017 0.398375 0.380646
32 3 0.382222 0.401168 0.389655
33 2 0.38799 0.408902 0.389378
34 2 0.390106 0.411687 0.398375
35 1 0.395945 0.419367 0.398063
36 1 0.398138 0.422139 0.407045
37 1 0.404073 0.429744 0.406688
38 3 0.406408 0.432453 0.415654
39 3 0.412504 0.439927 0.415259
40 1 0.415033 0.442502 0.424211
41 1 0.421325 0.449809 0.423796
42 1 0.424046 0.452223 0.432736
43 2 0.430513 0.459375 0.432311
44 3 0.433375 0.461644 0.441244
45 1 0.439995 0.468656 0.440831
46 1 0.442982 0.470762 0.449764
47 3 0.449768 0.477615 0.449379
48 1 0.45288 0.479529 0.458312
49 3 0.459827 0.486221 0.45797
50 3 0.463048 0.487925 0.466908
51 2 0.470149 0.494457 0.466624
52 3 0.473444 0.495959 0.475571
53 2 0.480661 0.502365 0.475357
54 3 0.484006 0.50368 0.484315
55 2 0.491319 0.509978 0.484176
56 1 0.494684 0.511129 0.493149
57 1 0.502063 0.517351 0.49309
58 2 0.505432 0.518367 0.502079
59 2 0.512854 0.524538 0.502106
60 3 0.516206 0.525447 0.511112
61 3 0.523649 0.531594 0.511212
62 3 0.526993 0.532417 0.520229
63 2 0.534452 0.538543 0.520388
64 3 0.53778 0.539296 0.529419
65 1 0.545237 0.545423 0.529644
66 3 0.548521 0.546137 0.538695
68 3 0.559154 0.553047 0.548051
67 1 0.555943 0.552303 0.538977
69 1 0.566504 0.559296 0.548386
70 2 0.569603 0.560122 0.557491
71 1 0.576843 0.566495 0.557891
72 1 0.579772 0.567436 0.56704
73 2 0.586872 0.573959 0.567523
74 2 0.589627 0.575016 0.576714
75 2 0.596563 0.581707 0.577266
76 3 0.599128 0.582917 0.586493
77 1 0.605854 0.589814 0.587096
78 3 0.608206 0.591214 0.596352
79 1 0.614677 0.598349 0.596986
80 2 0.616797 0.599962 0.606264
81 1 0.623023 0.60731 0.606915
82 1 0.624922 0.609105 0.616208
83 3 0.630927 0.616633 0.616879
84 1 0.632612 0.618583 0.626182
85 3 0.638406 0.626273 0.626869
86 1 0.639902 0.628354 0.636176
87 1 0.645506 0.636182 0.636875
88 3 0.646834 0.638361 0.646185
89 1 0.652276 0.646302 0.646907
90 3 0.653481 0.648529 0.656222
91 1 0.658793 0.656554 0.65697
92 3 0.659922 0.658804 0.66629
94 2 0.666238 0.669156 0.676367
93 2 0.665142 0.666889 0.667048
95 3 0.671413 0.677271 0.677117
96 3 0.672509 0.679555 0.686431
97 2 0.67767 0.687679 0.68716
98 1 0.678792 0.689971 0.69647
99 3 0.683958 0.698094 0.697184
100 1 0.685087 0.700391 0.706491
ITEM: TIMESTEP
700
ITEM: NUMBER OF ATOMS
100
ITEM: BOX BOUNDS ff ff ff
0.0000000000000000e+00 1.5850000000000000e+02
0.0000000000000000e+00 1.5850000000000000e+02
0.0000000000000000e+00 1.5850000000000000e+02
ITEM: ATOMS id type xs ys zs
1 2 0.255446 0.24847 0.246939
2 3 0.257916 0.250845 0.255964
3 1 0.264104 0.258251 0.255771
4 1 0.266572 0.260614 0.264798
5 2 0.272761 0.268019 0.264622
6 1 0.275227 0.270357 0.273657
7 1 0.281423 0.277758 0.273501
8 3 0.283882 0.28008 0.282542
9 1 0.290072 0.287484 0.282404
10 2 0.292507 0.28981 0.29145
11 3 0.298689 0.297223 0.291323
12 3 0.301101 0.299561 0.300373
13 2 0.307279 0.306976 0.30025
14 3 0.309663 0.309338 0.309301
16 3 0.318137 0.319192 0.318229
15 2 0.315816 0.316775 0.309176
17 2 0.32423 0.326678 0.318106
18 3 0.326472 0.329158 0.327162
19 2 0.332511 0.336686 0.327047
20 2 0.334689 0.339207 0.336108
21 3 0.340698 0.346762 0.336001
22 3 0.342818 0.349328 0.345062
23 2 0.348793 0.356909 0.34495
24 1 0.350848 0.359548 0.354006
25 1 0.356779 0.367164 0.353872
26 2 0.358767 0.369883 0.362919
27 1 0.364653 0.377534 0.362757
28 3 0.36659 0.380323 0.371794
29 3 0.372443 0.387996 0.371603
30 2 0.374372 0.390825 0.380629
31 3 0.380239 0.398488 0.380405
32 3 0.382217 0.401318 0.38942
33 2 0.388137 0.40894 0.389161
34 2 0.390194 0.411752 0.398162
35 1 0.396184 0.419317 0.397866
36 1 0.398326 0.422106 0.406856
37 1 0.404401 0.429601 0.406526
38 3 0.406652 0.432343 0.415503
39 3 0.41285 0.439734 0.415138
40 1 0.415261 0.44238 0.424101
41 1 0.421621 0.449631 0.423706
42 1 0.424217 0.452126 0.432662
43 2 0.430742 0.459228 0.432268
44 3 0.433497 0.461544 0.441224
45 1 0.440165 0.468511 0.44086
46 1 0.44306 0.470629 0.449821
47 3 0.449879 0.477452 0.449499
48 1 0.452915 0.479353 0.458462
49 3 0.459889 0.48602 0.458175
50 3 0.463049 0.487725 0.467135
51 2 0.470148 0.49426 0.466879
52 3 0.473395 0.495795 0.475838
53 2 0.480599 0.502216 0.475626
54 3 0.483922 0.503577 0.484586
55 2 0.491219 0.509894 0.484422
56 1 0.494609 0.511081 0.493381
57 1 0.501971 0.517322 0.493271
58 2 0.505407 0.518348 0.502233
59 2 0.512819 0.524533 0.502204
60 3 0.516273 0.5254 0.511175
61 3 0.523718 0.531541 0.51123
62 3 0.527166 0.532293 0.520214
63 2 0.53461 0.538435 0.520353
64 3 0.537992 0.53913 0.529368
65 1 0.545401 0.545312 0.529606
66 3 0.54869 0.546005 0.538655
68 3 0.559235 0.552996 0.548036
67 1 0.55604 0.552253 0.538958
69 1 0.566503 0.559337 0.5484
70 2 0.569582 0.560165 0.55751
71 1 0.576735 0.566631 0.557924
72 1 0.579678 0.567575 0.567068
73 2 0.586696 0.574185 0.56753
74 2 0.589477 0.575261 0.57671
75 2 0.596341 0.582027 0.577235
76 3 0.59893 0.58325 0.586452
77 1 0.605612 0.59019 0.587035
78 3 0.607975 0.591592 0.596289
79 1 0.614449 0.598722 0.59693
80 2 0.616556 0.600311 0.606215
81 1 0.622815 0.607627 0.606901
82 1 0.624687 0.609392 0.616205
83 3 0.630751 0.616869 0.616912
84 1 0.632413 0.618787 0.626225
85 3 0.638293 0.626408 0.626947
86 1 0.639759 0.628466 0.636263
87 1 0.645472 0.636211 0.636989
88 3 0.646774 0.638392 0.646302
89 1 0.652362 0.64623 0.647024
90 3 0.653534 0.648504 0.656332
91 1 0.659025 0.656409 0.657056
92 3 0.660084 0.65875 0.666361
94 2 0.666472 0.669091 0.676398
93 2 0.665495 0.666711 0.667094
95 3 0.671825 0.677089 0.677136
96 3 0.672756 0.679493 0.686438
97 2 0.67806 0.687524 0.687171
98 1 0.67896 0.689959 0.696468
99 3 0.684224 0.698017 0.697183
100 1 0.685115 0.700473 0.706476
ITEM: TIMESTEP
800
ITEM: NUMBER OF ATOMS
100
ITEM: BOX BOUNDS ff ff ff
0.0000000000000000e+00 1.5850000000000000e+02
0.0000000000000000e+00 1.5850000000000000e+02
0.0000000000000000e+00 1.5850000000000000e+02
ITEM: ATOMS id type xs ys zs
1 2 0.255453 0.248697 0.246586
2 3 0.257851 0.250988 0.255652
3 1 0.264183 0.258274 0.255569
4 1 0.266575 0.260567 0.264636
5 2 0.272896 0.267862 0.264555
6 1 0.275271 0.27017 0.273623
7 1 0.281571 0.277484 0.27354
8 3 0.283924 0.279818 0.282606
9 1 0.290197 0.287154 0.282513
10 2 0.29253 0.289522 0.291576
11 3 0.298776 0.296881 0.291472
12 3 0.30108 0.299289 0.300532
13 2 0.307281 0.306686 0.300416
14 3 0.309539 0.309151 0.309472
16 3 0.317886 0.319123 0.318392
15 2 0.315676 0.316601 0.30934
17 2 0.323963 0.326622 0.318249
18 3 0.326135 0.329192 0.327296
19 2 0.332163 0.33673 0.327137
20 2 0.334307 0.339342 0.336179
21 3 0.340286 0.346919 0.336006
22 3 0.342397 0.349572 0.345044
23 2 0.348329 0.357186 0.344857
24 1 0.350414 0.359878 0.353889
25 1 0.356315 0.367515 0.353685
26 2 0.358386 0.370242 0.362711
27 1 0.364271 0.37789 0.362486
28 3 0.366341 0.380645 0.371503
29 3 0.372222 0.388295 0.371257
30 2 0.374302 0.391064 0.380268
31 3 0.380201 0.3987 0.380005
32 3 0.382306 0.401462 0.389012
33 2 0.388247 0.409065 0.388741
34 2 0.390396 0.4118 0.397746
35 1 0.396402 0.419352 0.397471
36 1 0.398621 0.422036 0.406473
37 1 0.404716 0.429516 0.406191
38 3 0.407031 0.432131 0.41519
39 3 0.413234 0.439522 0.414899
40 1 0.415664 0.442049 0.423893
41 1 0.421993 0.449332 0.423591
42 1 0.424555 0.451749 0.432578
43 2 0.431027 0.458904 0.43227
44 3 0.433732 0.46118 0.441252
45 1 0.440364 0.468187 0.440952
46 1 0.443214 0.470292 0.449931
47 3 0.450007 0.477144 0.449648
48 1 0.452989 0.47907 0.458624
49 3 0.459932 0.485771 0.458363
50 3 0.463035 0.487513 0.467336
51 2 0.47012 0.494065 0.467101
52 3 0.473333 0.495621 0.47607
53 2 0.480548 0.50203 0.475866
54 3 0.483856 0.503401 0.48483
55 2 0.491187 0.509678 0.484661
56 1 0.494566 0.510882 0.493623
57 1 0.501982 0.51706 0.493494
58 2 0.505399 0.518125 0.502459
59 2 0.51287 0.524236 0.502392
60 3 0.516283 0.525189 0.51137
61 3 0.523785 0.531265 0.511374
62 3 0.527177 0.532151 0.520368
63 2 0.534681 0.538221 0.520435
64 3 0.538013 0.539066 0.529454
65 1 0.545491 0.545169 0.529608
66 3 0.548727 0.546019 0.538663
68 3 0.559252 0.553107 0.547989
67 1 0.556136 0.552202 0.538898
69 1 0.566565 0.559401 0.548303
70 2 0.569542 0.560388 0.557432
71 1 0.576737 0.566811 0.557823
72 1 0.579558 0.567895 0.56699
73 2 0.586613 0.574466 0.567459
74 2 0.589252 0.57567 0.576666
75 2 0.596143 0.582408 0.57721
76 3 0.59858 0.58375 0.586453
77 1 0.605294 0.590658 0.587061
78 3 0.607533 0.592142 0.596333
79 1 0.614068 0.599215 0.596988
80 2 0.616114 0.600841 0.60628
81 1 0.622471 0.608072 0.606972