ITEM: TIMESTEP
0
ITEM: NUMBER OF ATOMS
4
ITEM: BOX BOUNDS pp pp pp
0.0000000000000000e+00 1.5850000000000000e+02
0.0000000000000000e+00 1.5850000000000000e+02
0.0000000000000000e+00 1.5850000000000000e+02
ITEM: ATOMS id type xs ys zs
2 2 0.993087 0.323393 0.317585
1 1 0.983903 0.32654 0.318412
4 1 0.00808696 0.326109 0.321685
3 3 0.998849 0.328014 0.323894
ITEM: TIMESTEP
56
ITEM: NUMBER OF ATOMS
4
ITEM: BOX BOUNDS pp pp pp
0.0000000000000000e+00 1.5850000000000000e+02
0.0000000000000000e+00 1.5850000000000000e+02
0.0000000000000000e+00 1.5850000000000000e+02
ITEM: ATOMS id type xs ys zs
2 2 0.993135 0.323701 0.317257
1 1 0.983944 0.326235 0.318771
4 1 0.00801897 0.325794 0.322017
3 3 0.998828 0.328327 0.323531
ITEM: TIMESTEP
100
ITEM: NUMBER OF ATOMS
4
ITEM: BOX BOUNDS pp pp pp
0.0000000000000000e+00 1.5850000000000000e+02
0.0000000000000000e+00 1.5850000000000000e+02
0.0000000000000000e+00 1.5850000000000000e+02
ITEM: ATOMS id type xs ys zs
2 2 0.996485 0.323578 0.318338
1 1 0.986989 0.325574 0.317891
4 1 0.0055094 0.324777 0.319449
3 3 0.998103 0.329048 0.325477
ITEM: TIMESTEP
200
ITEM: NUMBER OF ATOMS
4
ITEM: BOX BOUNDS pp pp pp
0.0000000000000000e+00 1.5850000000000000e+02
0.0000000000000000e+00 1.5850000000000000e+02
0.0000000000000000e+00 1.5850000000000000e+02
ITEM: ATOMS id type xs ys zs
2 2 0.996794 0.323273 0.318707
1 1 0.987703 0.324819 0.316944
4 1 0.00668946 0.325284 0.319345
3 3 0.999775 0.328277 0.325642
ITEM: TIMESTEP
300
ITEM: NUMBER OF ATOMS
4
ITEM: BOX BOUNDS pp pp pp
0.0000000000000000e+00 1.5850000000000000e+02
0.0000000000000000e+00 1.5850000000000000e+02
0.0000000000000000e+00 1.5850000000000000e+02
ITEM: ATOMS id type xs ys zs
2 2 0.997154 0.324015 0.318375
1 1 0.987563 0.323893 0.316782
4 1 0.00777176 0.325004 0.319558
3 3 1.00044 0.328068 0.325661
ITEM: TIMESTEP
400
ITEM: NUMBER OF ATOMS
4
ITEM: BOX BOUNDS pp pp pp
0.0000000000000000e+00 1.5850000000000000e+02
0.0000000000000000e+00 1.5850000000000000e+02
0.0000000000000000e+00 1.5850000000000000e+02
ITEM: ATOMS id type xs ys zs
2 2 0.997239 0.324727 0.317772
1 1 0.987833 0.323183 0.31692
4 1 0.00832437 0.324669 0.319807
3 3 1.00078 0.327974 0.32571
ITEM: TIMESTEP
500
ITEM: NUMBER OF ATOMS
4
ITEM: BOX BOUNDS pp pp pp
0.0000000000000000e+00 1.5850000000000000e+02
0.0000000000000000e+00 1.5850000000000000e+02
0.0000000000000000e+00 1.5850000000000000e+02
ITEM: ATOMS id type xs ys zs
2 2 0.997478 0.325067 0.317489
1 1 0.988256 0.322795 0.317026
4 1 0.00852892 0.324539 0.319977
3 3 1.00104 0.327768 0.325567
ITEM: TIMESTEP
600
ITEM: NUMBER OF ATOMS
4
ITEM: BOX BOUNDS pp pp pp
0.0000000000000000e+00 1.5850000000000000e+02
0.0000000000000000e+00 1.5850000000000000e+02
0.0000000000000000e+00 1.5850000000000000e+02
ITEM: ATOMS id type xs ys zs
2 2 0.998131 0.324802 0.317414
1 1 0.988524 0.322712 0.317051
4 1 0.00906757 0.324667 0.319934
3 3 1.00108 0.327476 0.32546
ITEM: TIMESTEP
700
ITEM: NUMBER OF ATOMS
4
ITEM: BOX BOUNDS pp pp pp
0.0000000000000000e+00 1.5850000000000000e+02
0.0000000000000000e+00 1.5850000000000000e+02
0.0000000000000000e+00 1.5850000000000000e+02
ITEM: ATOMS id type xs ys zs
2 2 0.99855 0.323386 0.317215
1 1 0.98913 0.323121 0.316935
4 1 0.00984965 0.325425 0.320009
3 3 1.00149 0.326966 0.325404
ITEM: TIMESTEP
800
ITEM: NUMBER OF ATOMS
4
ITEM: BOX BOUNDS pp pp pp
0.0000000000000000e+00 1.5850000000000000e+02
0.0000000000000000e+00 1.5850000000000000e+02
0.0000000000000000e+00 1.5850000000000000e+02
ITEM: ATOMS id type xs ys zs
2 2 0.99941 0.322043 0.317604
1 1 0.989856 0.323451 0.316655
4 1 0.0102458 0.326141 0.319825
3 3 1.00193 0.326436 0.325155
ITEM: TIMESTEP
900
ITEM: NUMBER OF ATOMS
4
ITEM: BOX BOUNDS pp pp pp
0.0000000000000000e+00 1.5850000000000000e+02
0.0000000000000000e+00 1.5850000000000000e+02
0.0000000000000000e+00 1.5850000000000000e+02
ITEM: ATOMS id type xs ys zs
2 2 0.999775 0.322001 0.317495
1 1 0.990139 0.323005 0.316412
4 1 0.0109118 0.32614 0.319778
3 3 1.00235 0.326332 0.325323
ITEM: TIMESTEP
1000
ITEM: NUMBER OF ATOMS
4
ITEM: BOX BOUNDS pp pp pp
0.0000000000000000e+00 1.5850000000000000e+02
0.0000000000000000e+00 1.5850000000000000e+02
0.0000000000000000e+00 1.5850000000000000e+02
ITEM: ATOMS id type xs ys zs
2 2 0.999745 0.322675 0.317322
1 1 0.990236 0.322261 0.316243
4 1 0.0113527 0.32583 0.320026
3 3 0.00297915 0.326324 0.325266
ITEM: TIMESTEP
1100
ITEM: NUMBER OF ATOMS
4
ITEM: BOX BOUNDS pp pp pp
0.0000000000000000e+00 1.5850000000000000e+02
0.0000000000000000e+00 1.5850000000000000e+02
0.0000000000000000e+00 1.5850000000000000e+02
ITEM: ATOMS id type xs ys zs
2 2 0.999797 0.323831 0.317204
1 1 0.990337 0.321278 0.316098
4 1 0.0119929 0.325268 0.320141
3 3 0.00332122 0.326325 0.325262
ITEM: TIMESTEP
1200
ITEM: NUMBER OF ATOMS
4
ITEM: BOX BOUNDS pp pp pp
0.0000000000000000e+00 1.5850000000000000e+02
0.0000000000000000e+00 1.5850000000000000e+02
0.0000000000000000e+00 1.5850000000000000e+02
ITEM: ATOMS id type xs ys zs
2 2 0.999628 0.324764 0.317059
1 1 0.991128 0.320468 0.315954
4 1 0.0123039 0.324676 0.320153
3 3 0.00375797 0.326328 0.325356
ITEM: TIMESTEP
1300
ITEM: NUMBER OF ATOMS
4
ITEM: BOX BOUNDS pp pp pp
0.0000000000000000e+00 1.5850000000000000e+02
0.0000000000000000e+00 1.5850000000000000e+02
0.0000000000000000e+00 1.5850000000000000e+02
ITEM: ATOMS id type xs ys zs
2 2 0.999881 0.324682 0.317212
1 1 0.991689 0.32013 0.31569
4 1 0.0126791 0.324619 0.320129
3 3 0.00426514 0.326224 0.325265
ITEM: TIMESTEP
1400
ITEM: NUMBER OF ATOMS
4
ITEM: BOX BOUNDS pp pp pp
0.0000000000000000e+00 1.5850000000000000e+02
0.0000000000000000e+00 1.5850000000000000e+02
0.0000000000000000e+00 1.5850000000000000e+02
ITEM: ATOMS id type xs ys zs
2 2 1.00074 0.323107 0.317491
1 1 0.991481 0.320354 0.315234
4 1 0.0136218 0.325439 0.320098
3 3 0.00469346 0.326062 0.325203
ITEM: TIMESTEP
1500
ITEM: NUMBER OF ATOMS
4
ITEM: BOX BOUNDS pp pp pp
0.0000000000000000e+00 1.5850000000000000e+02
0.0000000000000000e+00 1.5850000000000000e+02
0.0000000000000000e+00 1.5850000000000000e+02
ITEM: ATOMS id type xs ys zs
2 2 1.00167 0.320648 0.317694
1 1 0.99234 0.321301 0.31525
4 1 0.0136532 0.326492 0.320008
3 3 0.00498415 0.325803 0.324794
ITEM: TIMESTEP
1600
ITEM: NUMBER OF ATOMS
4
ITEM: BOX BOUNDS pp pp pp
0.0000000000000000e+00 1.5850000000000000e+02
0.0000000000000000e+00 1.5850000000000000e+02
0.0000000000000000e+00 1.5850000000000000e+02
ITEM: ATOMS id type xs ys zs
2 2 1.0024 0.320261 0.317399
1 1 0.992951 0.32129 0.315488
4 1 0.0138745 0.326529 0.319979
3 3 0.00488668 0.325664 0.324683
ITEM: TIMESTEP
1700
ITEM: NUMBER OF ATOMS
4
ITEM: BOX BOUNDS pp pp pp
0.0000000000000000e+00 1.5850000000000000e+02
0.0000000000000000e+00 1.5850000000000000e+02
0.0000000000000000e+00 1.5850000000000000e+02
ITEM: ATOMS id type xs ys zs
2 2 1.00278 0.320668 0.317014
1 1 0.993034 0.320818 0.315685
4 1 0.0142396 0.326285 0.320296
3 3 0.0050667 0.325628 0.32442
ITEM: TIMESTEP
1800
ITEM: NUMBER OF ATOMS
4
ITEM: BOX BOUNDS pp pp pp
0.0000000000000000e+00 1.5850000000000000e+02
0.0000000000000000e+00 1.5850000000000000e+02
0.0000000000000000e+00 1.5850000000000000e+02
ITEM: ATOMS id type xs ys zs
2 2 1.00264 0.32163 0.316214
1 1 0.993284 0.319862 0.315929
4 1 0.0149085 0.325733 0.320817
3 3 0.00542301 0.325786 0.324304
ITEM: TIMESTEP
1900
ITEM: NUMBER OF ATOMS
4
ITEM: BOX BOUNDS pp pp pp
0.0000000000000000e+00 1.5850000000000000e+02
0.0000000000000000e+00 1.5850000000000000e+02
0.0000000000000000e+00 1.5850000000000000e+02
ITEM: ATOMS id type xs ys zs
2 2 1.00264 0.323754 0.315665
1 1 0.994325 0.318322 0.316187
4 1 0.0153804 0.324399 0.321195
3 3 0.00572533 0.325914 0.323974
ITEM: TIMESTEP
2000
ITEM: NUMBER OF ATOMS
4
ITEM: BOX BOUNDS pp pp pp
0.0000000000000000e+00 1.5850000000000000e+02
0.0000000000000000e+00 1.5850000000000000e+02
0.0000000000000000e+00 1.5850000000000000e+02
ITEM: ATOMS id type xs ys zs
1 1 0.995819 0.317732 0.316103
2 2 0.00276774 0.324208 0.315436
4 1 0.0155827 0.32369 0.321038
3 3 0.00608302 0.326014 0.324154
ITEM: TIMESTEP
2100
ITEM: NUMBER OF ATOMS
4
ITEM: BOX BOUNDS pp pp pp
0.0000000000000000e+00 1.5850000000000000e+02
0.0000000000000000e+00 1.5850000000000000e+02
0.0000000000000000e+00 1.5850000000000000e+02
ITEM: ATOMS id type xs ys zs
1 1 0.996035 0.317512 0.315659
2 2 0.0036045 0.323536 0.315803
4 1 0.0159319 0.32407 0.320898
3 3 0.00665648 0.325852 0.324107
ITEM: TIMESTEP
2200
ITEM: NUMBER OF ATOMS
4
ITEM: BOX BOUNDS pp pp pp
0.0000000000000000e+00 1.5850000000000000e+02
0.0000000000000000e+00 1.5850000000000000e+02
0.0000000000000000e+00 1.5850000000000000e+02
ITEM: ATOMS id type xs ys zs
1 1 0.995596 0.317818 0.314898
2 2 0.00444899 0.321759 0.316388
4 1 0.0166994 0.325111 0.320621
3 3 0.00710168 0.325727 0.324343
ITEM: TIMESTEP
2300
ITEM: NUMBER OF ATOMS
4
ITEM: BOX BOUNDS pp pp pp
0.0000000000000000e+00 1.5850000000000000e+02
0.0000000000000000e+00 1.5850000000000000e+02
0.0000000000000000e+00 1.5850000000000000e+02
ITEM: ATOMS id type xs ys zs
1 1 0.995975 0.318612 0.314359
2 2 0.00502369 0.319907 0.317265
4 1 0.0165205 0.325911 0.320109
3 3 0.00746613 0.325597 0.324365
ITEM: TIMESTEP
2400
ITEM: NUMBER OF ATOMS
4
ITEM: BOX BOUNDS pp pp pp
0.0000000000000000e+00 1.5850000000000000e+02
0.0000000000000000e+00 1.5850000000000000e+02
0.0000000000000000e+00 1.5850000000000000e+02
ITEM: ATOMS id type xs ys zs
1 1 0.996249 0.318861 0.3142
2 2 0.00542609 0.319416 0.317623
4 1 0.0164715 0.326078 0.319851
3 3 0.00746569 0.325458 0.32434
ITEM: TIMESTEP
2500
ITEM: NUMBER OF ATOMS
4
ITEM: BOX BOUNDS pp pp pp
0.0000000000000000e+00 1.5850000000000000e+02
0.0000000000000000e+00 1.5850000000000000e+02
0.0000000000000000e+00 1.5850000000000000e+02
ITEM: ATOMS id type xs ys zs
1 1 0.996427 0.318846 0.314148
2 2 0.00558607 0.31913 0.317614
4 1 0.0166759 0.326206 0.319854
3 3 0.00760229 0.325399 0.324307
ITEM: TIMESTEP
2600
ITEM: NUMBER OF ATOMS
4
ITEM: BOX BOUNDS pp pp pp
0.0000000000000000e+00 1.5850000000000000e+02
0.0000000000000000e+00 1.5850000000000000e+02
0.0000000000000000e+00 1.5850000000000000e+02
ITEM: ATOMS id type xs ys zs
1 1 0.996529 0.318335 0.314221
2 2 0.00567631 0.319385 0.317151
4 1 0.0171181 0.326135 0.320232
3 3 0.00802391 0.325365 0.324181
ITEM: TIMESTEP
2700
ITEM: NUMBER OF ATOMS
4
ITEM: BOX BOUNDS pp pp pp
0.0000000000000000e+00 1.5850000000000000e+02
0.0000000000000000e+00 1.5850000000000000e+02
0.0000000000000000e+00 1.5850000000000000e+02
ITEM: ATOMS id type xs ys zs
1 1 0.99668 0.317104 0.314622
2 2 0.00589498 0.320893 0.316091
4 1 0.0179692 0.32549 0.320879
3 3 0.00826023 0.325236 0.323997
ITEM: TIMESTEP
2800
ITEM: NUMBER OF ATOMS
4
ITEM: BOX BOUNDS pp pp pp
0.0000000000000000e+00 1.5850000000000000e+02
0.0000000000000000e+00 1.5850000000000000e+02
0.0000000000000000e+00 1.5850000000000000e+02
ITEM: ATOMS id type xs ys zs
1 1 0.998196 0.316185 0.315176
2 2 0.00566778 0.322369 0.315085
4 1 0.0182548 0.324441 0.321264
3 3 0.00858171 0.325079 0.323812
ITEM: TIMESTEP
2900
ITEM: NUMBER OF ATOMS
4
ITEM: BOX BOUNDS pp pp pp
0.0000000000000000e+00 1.5850000000000000e+02
0.0000000000000000e+00 1.5850000000000000e+02
0.0000000000000000e+00 1.5850000000000000e+02
ITEM: ATOMS id type xs ys zs
1 1 0.999109 0.315734 0.315234
2 2 0.00617526 0.322541 0.31484
4 1 0.0186894 0.324245 0.321332
3 3 0.00896042 0.324791 0.323633
ITEM: TIMESTEP
3000
ITEM: NUMBER OF ATOMS
4
ITEM: BOX BOUNDS pp pp pp
0.0000000000000000e+00 1.5850000000000000e+02
0.0000000000000000e+00 1.5850000000000000e+02
0.0000000000000000e+00 1.5850000000000000e+02
ITEM: ATOMS id type xs ys zs
1 1 0.998969 0.315741 0.314643
2 2 0.00731647 0.321209 0.31524
4 1 0.01928 0.325106 0.321095
3 3 0.00945696 0.324541 0.323782
ITEM: TIMESTEP
3100
ITEM: NUMBER OF ATOMS
4
ITEM: BOX BOUNDS pp pp pp
0.0000000000000000e+00 1.5850000000000000e+02
0.0000000000000000e+00 1.5850000000000000e+02
0.0000000000000000e+00 1.5850000000000000e+02
ITEM: ATOMS id type xs ys zs
1 1 0.999177 0.316333 0.31398
2 2 0.00804054 0.319549 0.316031
4 1 0.019172 0.325838 0.320583
3 3 0.00992094 0.324437 0.323994
ITEM: TIMESTEP
3200
ITEM: NUMBER OF ATOMS
4
ITEM: BOX BOUNDS pp pp pp
0.0000000000000000e+00 1.5850000000000000e+02
0.0000000000000000e+00 1.5850000000000000e+02
0.0000000000000000e+00 1.5850000000000000e+02
ITEM: ATOMS id type xs ys zs
1 1 0.999451 0.316717 0.313503
2 2 0.0086226 0.318613 0.316792
4 1 0.0191802 0.326248 0.320089
3 3 0.0100682 0.324234 0.324069
ITEM: TIMESTEP
3300
ITEM: NUMBER OF ATOMS
4
ITEM: BOX BOUNDS pp pp pp
0.0000000000000000e+00 1.5850000000000000e+02
0.0000000000000000e+00 1.5850000000000000e+02
0.0000000000000000e+00 1.5850000000000000e+02
ITEM: ATOMS id type xs ys zs
1 1 0.999997 0.31674 0.313106
2 2 0.00878834 0.318006 0.317181
4 1 0.0193479 0.326507 0.319844
3 3 0.0105217 0.324103 0.324144
ITEM: TIMESTEP
3400
ITEM: NUMBER OF ATOMS
4
ITEM: BOX BOUNDS pp pp pp
0.0000000000000000e+00 1.5850000000000000e+02
0.0000000000000000e+00 1.5850000000000000e+02
0.0000000000000000e+00 1.5850000000000000e+02
ITEM: ATOMS id type xs ys zs
1 1 1.00058 0.315788 0.312869
2 2 0.00879662 0.31861 0.316799
4 1 0.0200912 0.326269 0.320063
3 3 0.0112608 0.32398 0.324267
ITEM: TIMESTEP
3500
ITEM: NUMBER OF ATOMS
4
ITEM: BOX BOUNDS pp pp pp
0.0000000000000000e+00 1.5850000000000000e+02
0.0000000000000000e+00 1.5850000000000000e+02
0.0000000000000000e+00 1.5850000000000000e+02
ITEM: ATOMS id type xs ys zs
1 1 1.0017 0.314429 0.313295
2 2 0.00882719 0.320693 0.315834
4 1 0.020927 0.325253 0.320336
3 3 0.0114657 0.323523 0.324241
ITEM: TIMESTEP
3600
ITEM: NUMBER OF ATOMS
4
ITEM: BOX BOUNDS pp pp pp
0.0000000000000000e+00 1.5850000000000000e+02
0.0000000000000000e+00 1.5850000000000000e+02
0.0000000000000000e+00 1.5850000000000000e+02
ITEM: ATOMS id type xs ys zs
1 1 1.00271 0.314158 0.313759
2 2 0.00928372 0.321098 0.315295
4 1 0.0209589 0.324909 0.320494
3 3 0.0118409 0.323094 0.323908
ITEM: TIMESTEP
3700
ITEM: NUMBER OF ATOMS
4
ITEM: BOX BOUNDS pp pp pp
0.0000000000000000e+00 1.5850000000000000e+02
0.0000000000000000e+00 1.5850000000000000e+02
0.0000000000000000e+00 1.5850000000000000e+02
ITEM: ATOMS id type xs ys zs
1 1 1.0029 0.31425 0.313809
2 2 0.0101666 0.320431 0.315012
4 1 0.0212089 0.325347 0.320467
3 3 0.0120068 0.322723 0.323969
ITEM: TIMESTEP
3800
ITEM: NUMBER OF ATOMS
4
ITEM: BOX BOUNDS pp pp pp
0.0000000000000000e+00 1.5850000000000000e+02
0.0000000000000000e+00 1.5850000000000000e+02
0.0000000000000000e+00 1.5850000000000000e+02
ITEM: ATOMS id type xs ys zs
1 1 1.0029 0.314582 0.313687
2 2 0.0111627 0.319597 0.315259
4 1 0.0210473 0.325793 0.320272
3 3 0.0122371 0.322414 0.323897
ITEM: TIMESTEP
3900
ITEM: NUMBER OF ATOMS
4
ITEM: BOX BOUNDS pp pp pp
0.0000000000000000e+00 1.5850000000000000e+02
0.0000000000000000e+00 1.5850000000000000e+02
0.0000000000000000e+00 1.5850000000000000e+02
ITEM: ATOMS id type xs ys zs
1 1 1.00315 0.314951 0.313577
2 2 0.0116391 0.318928 0.315379
4 1 0.0208216 0.325999 0.32006
3 3 0.0124492 0.322263 0.324004
ITEM: TIMESTEP
4000
ITEM: NUMBER OF ATOMS
4
ITEM: BOX BOUNDS pp pp pp
0.0000000000000000e+00 1.5850000000000000e+02
0.0000000000000000e+00 1.5850000000000000e+02
0.0000000000000000e+00 1.5850000000000000e+02
ITEM: ATOMS id type xs ys zs
1 1 1.00333 0.315147 0.31337
2 2 0.0121824 0.31848 0.315653
4 1 0.0207883 0.326197 0.319762
3 3 0.0125621 0.322043 0.324128
ITEM: TIMESTEP
4100
ITEM: NUMBER OF ATOMS
4
ITEM: BOX BOUNDS pp pp pp
0.0000000000000000e+00 1.5850000000000000e+02
0.0000000000000000e+00 1.5850000000000000e+02
0.0000000000000000e+00 1.5850000000000000e+02
ITEM: ATOMS id type xs ys zs
1 1 1.00392 0.31507 0.312989
2 2 0.0125363 0.318262 0.31597
4 1 0.0207688 0.326118 0.319484
3 3 0.0131201 0.321912 0.324272
ITEM: TIMESTEP
4200
ITEM: NUMBER OF ATOMS
4
ITEM: BOX BOUNDS pp pp pp
0.0000000000000000e+00 1.5850000000000000e+02
0.0000000000000000e+00 1.5850000000000000e+02
0.0000000000000000e+00 1.5850000000000000e+02
ITEM: ATOMS id type xs ys zs
1 1 1.00479 0.314261 0.312553
2 2 0.0123675 0.31893 0.315892
4 1 0.021279 0.325681 0.319331
3 3 0.0138278 0.321835 0.324683
ITEM: TIMESTEP
4300
ITEM: NUMBER OF ATOMS
4
ITEM: BOX BOUNDS pp pp pp
0.0000000000000000e+00 1.5850000000000000e+02
0.0000000000000000e+00 1.5850000000000000e+02
0.0000000000000000e+00 1.5850000000000000e+02
ITEM: ATOMS id type xs ys zs
1 1 0.00604774 0.31345 0.312512
2 2 0.0123238 0.320019 0.31585
4 1 0.0218661 0.325091 0.319017
3 3 0.0141793 0.321411 0.324793
ITEM: TIMESTEP
4400
ITEM: NUMBER OF ATOMS
4
ITEM: BOX BOUNDS pp pp pp
0.0000000000000000e+00 1.5850000000000000e+02
0.0000000000000000e+00 1.5850000000000000e+02
0.0000000000000000e+00 1.5850000000000000e+02
ITEM: ATOMS id type xs ys zs
1 1 0.00686731 0.313115 0.312678
2 2 0.0127575 0.320144 0.315635
4 1 0.0220822 0.324942 0.319212
3 3 0.0147268 0.32108 0.324378
ITEM: TIMESTEP
4500
ITEM: NUMBER OF ATOMS
4
ITEM: BOX BOUNDS pp pp pp
0.0000000000000000e+00 1.5850000000000000e+02
0.0000000000000000e+00 1.5850000000000000e+02
0.0000000000000000e+00 1.5850000000000000e+02
ITEM: ATOMS id type xs ys zs
1 1 0.00698746 0.313111 0.312768
2 2 0.0135174 0.319616 0.315339
4 1 0.022411 0.325365 0.319295
3 3 0.0149399 0.320705 0.324312
ITEM: TIMESTEP
4600
ITEM: NUMBER OF ATOMS
4
ITEM: BOX BOUNDS pp pp pp
0.0000000000000000e+00 1.5850000000000000e+02
0.0000000000000000e+00 1.5850000000000000e+02
0.0000000000000000e+00 1.5850000000000000e+02
ITEM: ATOMS id type xs ys zs
1 1 0.00703406 0.313355 0.312853
2 2 0.0143296 0.318995 0.31522
4 1 0.0223305 0.325661 0.319321
3 3 0.0151636 0.320442 0.324186
ITEM: TIMESTEP
4700
ITEM: NUMBER OF ATOMS
4
ITEM: BOX BOUNDS pp pp pp
0.0000000000000000e+00 1.5850000000000000e+02
0.0000000000000000e+00 1.5850000000000000e+02
0.0000000000000000e+00 1.5850000000000000e+02
ITEM: ATOMS id type xs ys zs
1 1 0.00733243 0.313755 0.312965
2 2 0.0152662 0.318462 0.315254
4 1 0.0219565 0.325679 0.319181
3 3 0.0154395 0.32017 0.324028
ITEM: TIMESTEP
4800
ITEM: NUMBER OF ATOMS
4
ITEM: BOX BOUNDS pp pp pp
0.0000000000000000e+00 1.5850000000000000e+02
0.0000000000000000e+00 1.5850000000000000e+02
0.0000000000000000e+00 1.5850000000000000e+02
ITEM: ATOMS id type xs ys zs
1 1 0.00805098 0.31389 0.312931
2 2 0.0162716 0.318085 0.315233
4 1 0.0220811 0.325729 0.318758
3 3 0.0157407 0.319626 0.324219
ITEM: TIMESTEP
4900
ITEM: NUMBER OF ATOMS
4
ITEM: BOX BOUNDS pp pp pp
0.0000000000000000e+00 1.5850000000000000e+02
0.0000000000000000e+00 1.5850000000000000e+02
0.0000000000000000e+00 1.5850000000000000e+02
ITEM: ATOMS id type xs ys zs
1 1 0.00888517 0.313143 0.312664
2 2 0.0164655 0.31825 0.315195
4 1 0.0226684 0.325449 0.318957
3 3 0.0165236 0.319668 0.324006
ITEM: TIMESTEP
5000
ITEM: NUMBER OF ATOMS
4
ITEM: BOX BOUNDS pp pp pp
0.0000000000000000e+00 1.5850000000000000e+02
0.0000000000000000e+00 1.5850000000000000e+02
0.0000000000000000e+00 1.5850000000000000e+02
ITEM: ATOMS id type xs ys zs
1 1 0.00978366 0.312253 0.312411
2 2 0.0161806 0.318758 0.315118
4 1 0.0235563 0.325198 0.318995
3 3 0.0169119 0.319656 0.324045
ITEM: TIMESTEP
5100
ITEM: NUMBER OF ATOMS
4
ITEM: BOX BOUNDS pp pp pp
0.0000000000000000e+00 1.5850000000000000e+02
0.0000000000000000e+00 1.5850000000000000e+02
0.0000000000000000e+00 1.5850000000000000e+02
ITEM: ATOMS id type xs ys zs
1 1 0.0105542 0.311789 0.312272
2 2 0.0159573 0.319043 0.315062
4 1 0.024122 0.324969 0.318945
3 3 0.0171575 0.3196 0.324109
ITEM: TIMESTEP
5200
ITEM: NUMBER OF ATOMS
4
ITEM: BOX BOUNDS pp pp pp
0.0000000000000000e+00 1.5850000000000000e+02
0.0000000000000000e+00 1.5850000000000000e+02
0.0000000000000000e+00 1.5850000000000000e+02
ITEM: ATOMS id type xs ys zs
1 1 0.0109877 0.31159 0.312132
2 2 0.0162137 0.31897 0.315149
4 1 0.0242336 0.324803 0.318984
3 3 0.0175624 0.319626 0.323961
ITEM: TIMESTEP
5300
ITEM: NUMBER OF ATOMS
4
ITEM: BOX BOUNDS pp pp pp
0.0000000000000000e+00 1.5850000000000000e+02
0.0000000000000000e+00 1.5850000000000000e+02
0.0000000000000000e+00 1.5850000000000000e+02
ITEM: ATOMS id type xs ys zs
1 1 0.0112724 0.311717 0.311931
2 2 0.0173882 0.318292 0.315232
4 1 0.0243284 0.325036 0.31864
3 3 0.0178834 0.319304 0.324175
ITEM: TIMESTEP
5400
ITEM: NUMBER OF ATOMS
4
ITEM: BOX BOUNDS pp pp pp
0.0000000000000000e+00 1.5850000000000000e+02
0.0000000000000000e+00 1.5850000000000000e+02
0.0000000000000000e+00 1.5850000000000000e+02
ITEM: ATOMS id type xs ys zs
1 1 0.01179 0.312018 0.311855
2 2 0.018999 0.317105 0.315067
4 1 0.0242626 0.325224 0.318601
3 3 0.0185846 0.319057 0.324086
ITEM: TIMESTEP
5500
ITEM: NUMBER OF ATOMS
4
ITEM: BOX BOUNDS pp pp pp
0.0000000000000000e+00 1.5850000000000000e+02
0.0000000000000000e+00 1.5850000000000000e+02
0.0000000000000000e+00 1.5850000000000000e+02
ITEM: ATOMS id type xs ys zs
1 1 0.0123645 0.311525 0.311821
2 2 0.0196968 0.316907 0.314945
4 1 0.0247663 0.3253 0.318852
3 3 0.0190628 0.318901 0.32369
ITEM: TIMESTEP
5600
ITEM: NUMBER OF ATOMS
4
ITEM: BOX BOUNDS pp pp pp
0.0000000000000000e+00 1.5850000000000000e+02
0.0000000000000000e+00 1.5850000000000000e+02
0.0000000000000000e+00 1.5850000000000000e+02
ITEM: ATOMS id type xs ys zs
1 1 0.0130096 0.310711 0.311776
2 2 0.0195253 0.317272 0.314602
4 1 0.0256455 0.325332 0.319069
3 3 0.0192471 0.318793 0.323656
ITEM: TIMESTEP
5700
ITEM: NUMBER OF ATOMS
4
ITEM: BOX BOUNDS pp pp pp
0.0000000000000000e+00 1.5850000000000000e+02
0.0000000000000000e+00 1.5850000000000000e+02
0.0000000000000000e+00 1.5850000000000000e+02
ITEM: ATOMS id type xs ys zs
1 1 0.0139566 0.310111 0.311752
2 2 0.0189808 0.317725 0.314383
4 1 0.0262302 0.324878 0.319268
3 3 0.0196261 0.318927 0.323517
ITEM: TIMESTEP
5800
ITEM: NUMBER OF ATOMS
4
ITEM: BOX BOUNDS pp pp pp
0.0000000000000000e+00 1.5850000000000000e+02
0.0000000000000000e+00 1.5850000000000000e+02
0.0000000000000000e+00 1.5850000000000000e+02
ITEM: ATOMS id type xs ys zs
1 1 0.0148633 0.309661 0.311669
2 2 0.0188783 0.318126 0.314477
4 1 0.0267879 0.324559 0.319104
3 3 0.0198271 0.318761 0.323461
ITEM: TIMESTEP
5900
ITEM: NUMBER OF ATOMS
4
ITEM: BOX BOUNDS pp pp pp
0.0000000000000000e+00 1.5850000000000000e+02
0.0000000000000000e+00 1.5850000000000000e+02
0.0000000000000000e+00 1.5850000000000000e+02
ITEM: ATOMS id type xs ys zs
1 1 0.0155041 0.309557 0.311495
2 2 0.0197263 0.317693 0.314307
4 1 0.027059 0.324585 0.318966
3 3 0.0203385 0.318497 0.32364
ITEM: TIMESTEP
6000
ITEM: NUMBER OF ATOMS
4
ITEM: BOX BOUNDS pp pp pp
0.0000000000000000e+00 1.5850000000000000e+02
0.0000000000000000e+00 1.5850000000000000e+02
0.0000000000000000e+00 1.5850000000000000e+02
ITEM: ATOMS id type xs ys zs
1 1 0.0159848 0.309674 0.310989
2 2 0.0223538 0.315897 0.314564
4 1 0.0268583 0.325058 0.318936
3 3 0.0216877 0.318248 0.323352
ITEM: TIMESTEP
6100
ITEM: NUMBER OF ATOMS
4
ITEM: BOX BOUNDS pp pp pp
0.0000000000000000e+00 1.5850000000000000e+02
0.0000000000000000e+00 1.5850000000000000e+02
0.0000000000000000e+00 1.5850000000000000e+02
ITEM: ATOMS id type xs ys zs
1 1 0.0169823 0.309028 0.310611
2 2 0.0232871 0.315504 0.314581
4 1 0.0275804 0.325395 0.318802
3 3 0.0224021 0.317798 0.323398
ITEM: TIMESTEP
6200
ITEM: NUMBER OF ATOMS
4
ITEM: BOX BOUNDS pp pp pp
0.0000000000000000e+00 1.5850000000000000e+02
0.0000000000000000e+00 1.5850000000000000e+02
0.0000000000000000e+00 1.5850000000000000e+02
ITEM: ATOMS id type xs ys zs
1 1 0.0181904 0.308147 0.310579
2 2 0.022605 0.315836 0.314048
4 1 0.0285336 0.325179 0.319288
3 3 0.0230476 0.317837 0.323193
ITEM: TIMESTEP
6300
ITEM: NUMBER OF ATOMS
4
ITEM: BOX BOUNDS pp pp pp
0.0000000000000000e+00 1.5850000000000000e+02
0.0000000000000000e+00 1.5850000000000000e+02
0.0000000000000000e+00 1.5850000000000000e+02
ITEM: ATOMS id type xs ys zs
1 1 0.019076 0.307669 0.310659
2 2 0.0222298 0.31619 0.313914
4 1 0.0291994 0.325003 0.319429
3 3 0.0233648 0.317628 0.322907
ITEM: TIMESTEP
6400
ITEM: NUMBER OF ATOMS
4
ITEM: BOX BOUNDS pp pp pp
0.0000000000000000e+00 1.5850000000000000e+02
0.0000000000000000e+00 1.5850000000000000e+02
0.0000000000000000e+00 1.5850000000000000e+02
ITEM: ATOMS id type xs ys zs
1 1 0.0194659 0.307375 0.310592
2 2 0.0225318 0.316091 0.313807
4 1 0.0295298 0.325134 0.319517
3 3 0.0236547 0.317441 0.322817
ITEM: TIMESTEP
6500
ITEM: NUMBER OF ATOMS
4
ITEM: BOX BOUNDS pp pp pp
0.0000000000000000e+00 1.5850000000000000e+02
0.0000000000000000e+00 1.5850000000000000e+02
0.0000000000000000e+00 1.5850000000000000e+02
ITEM: ATOMS id type xs ys zs
1 1 0.0195163 0.307276 0.310447
2 2 0.0235351 0.315216 0.313578
4 1 0.0294773 0.325491 0.319818
3 3 0.0242797 0.317503 0.322673
ITEM: TIMESTEP
6600
ITEM: NUMBER OF ATOMS
4
ITEM: BOX BOUNDS pp pp pp
0.0000000000000000e+00 1.5850000000000000e+02
0.0000000000000000e+00 1.5850000000000000e+02
0.0000000000000000e+00 1.5850000000000000e+02
ITEM: ATOMS id type xs ys zs
1 1 0.0195228 0.307486 0.310181
2 2 0.0259445 0.313971 0.313881
4 1 0.0290174 0.326096 0.319648
3 3 0.0249217 0.317045 0.32246
ITEM: TIMESTEP
6700
ITEM: NUMBER OF ATOMS
4
ITEM: BOX BOUNDS pp pp pp
0.0000000000000000e+00 1.5850000000000000e+02
0.0000000000000000e+00 1.5850000000000000e+02
0.0000000000000000e+00 1.5850000000000000e+02
ITEM: ATOMS id type xs ys zs
1 1 0.0205173 0.307127 0.310026
2 2 0.0265796 0.313745 0.31374
4 1 0.0293867 0.325898 0.319611
3 3 0.0255657 0.316925 0.32244
ITEM: TIMESTEP
6800
ITEM: NUMBER OF ATOMS
4
ITEM: BOX BOUNDS pp pp pp
0.0000000000000000e+00 1.5850000000000000e+02
0.0000000000000000e+00 1.5850000000000000e+02
0.0000000000000000e+00 1.5850000000000000e+02
ITEM: ATOMS id type xs ys zs
1 1 0.0219051 0.306212 0.30983
2 2 0.0255556 0.314298 0.313439
4 1 0.0305173 0.325543 0.319799
3 3 0.0260639 0.316961 0.322484
ITEM: TIMESTEP
6900
ITEM: NUMBER OF ATOMS
4
ITEM: BOX BOUNDS pp pp pp
0.0000000000000000e+00 1.5850000000000000e+02
0.0000000000000000e+00 1.5850000000000000e+02
0.0000000000000000e+00 1.5850000000000000e+02
ITEM: ATOMS id type xs ys zs
1 1 0.0233352 0.305725 0.309773
2 2 0.0245719 0.314877 0.313461
4 1 0.0315243 0.325144 0.319639
3 3 0.0263603 0.316671 0.322445
ITEM: TIMESTEP
7000
ITEM: NUMBER OF ATOMS
4
ITEM: BOX BOUNDS pp pp pp
0.0000000000000000e+00 1.5850000000000000e+02
0.0000000000000000e+00 1.5850000000000000e+02
0.0000000000000000e+00 1.5850000000000000e+02
ITEM: ATOMS id type xs ys zs
1 1 0.0240632 0.305618 0.309755
2 2 0.024817 0.314658 0.313329
4 1 0.0317633 0.324866 0.319677
3 3 0.0268713 0.316686 0.322327
ITEM: TIMESTEP
7100
ITEM: NUMBER OF ATOMS
4
ITEM: BOX BOUNDS pp pp pp
0.0000000000000000e+00 1.5850000000000000e+02
0.0000000000000000e+00 1.5850000000000000e+02
0.0000000000000000e+00 1.5850000000000000e+02
ITEM: ATOMS id type xs ys zs
1 1 0.0239218 0.305282 0.309466
2 2 0.0265667 0.313995 0.31318
4 1 0.0315466 0.325398 0.31979
3 3 0.027318 0.316524 0.322408
ITEM: TIMESTEP
7200
ITEM: NUMBER OF ATOMS
4
ITEM: BOX BOUNDS pp pp pp
0.0000000000000000e+00 1.5850000000000000e+02
0.0000000000000000e+00 1.5850000000000000e+02
0.0000000000000000e+00 1.5850000000000000e+02
ITEM: ATOMS id type xs ys zs
1 1 0.0236579 0.305734 0.309326
2 2 0.0294149 0.31277 0.313522
4 1 0.0307109 0.325674 0.319512
3 3 0.0278612 0.316239 0.322178
ITEM: TIMESTEP
7300
ITEM: NUMBER OF ATOMS
4
ITEM: BOX BOUNDS pp pp pp
0.0000000000000000e+00 1.5850000000000000e+02
0.0000000000000000e+00 1.5850000000000000e+02
0.0000000000000000e+00 1.5850000000000000e+02
ITEM: ATOMS id type xs ys zs
1 1 0.0246092 0.305719 0.309449
2 2 0.0304687 0.31238 0.313348
4 1 0.030826 0.325294 0.319457
3 3 0.028503 0.316079 0.321915
ITEM: TIMESTEP
7400
ITEM: NUMBER OF ATOMS
4
ITEM: BOX BOUNDS pp pp pp
0.0000000000000000e+00 1.5850000000000000e+02
0.0000000000000000e+00 1.5850000000000000e+02
0.0000000000000000e+00 1.5850000000000000e+02
ITEM: ATOMS id type xs ys zs
1 1 0.0259509 0.304779 0.309426
2 2 0.0297492 0.313199 0.312925
4 1 0.0320067 0.325136 0.319535
3 3 0.0287771 0.315648 0.322005
ITEM: TIMESTEP
7500
ITEM: NUMBER OF ATOMS
4
ITEM: BOX BOUNDS pp pp pp
0.0000000000000000e+00 1.5850000000000000e+02
0.0000000000000000e+00 1.5850000000000000e+02
0.0000000000000000e+00 1.5850000000000000e+02
ITEM: ATOMS id type xs ys zs
1 1 0.0272904 0.304551 0.309465
2 2 0.0286285 0.313587 0.312876
4 1 0.0328729 0.324536 0.319439
3 3 0.0290334 0.315631 0.321933
ITEM: TIMESTEP
7600
ITEM: NUMBER OF ATOMS
4
ITEM: BOX BOUNDS pp pp pp
0.0000000000000000e+00 1.5850000000000000e+02
0.0000000000000000e+00 1.5850000000000000e+02
0.0000000000000000e+00 1.5850000000000000e+02
ITEM: ATOMS id type xs ys zs
1 1 0.0282832 0.304574 0.309452
2 2 0.0281311 0.313581 0.31289
4 1 0.0334667 0.3242 0.319219
3 3 0.0292436 0.315505 0.321979
ITEM: TIMESTEP
7700
ITEM: NUMBER OF ATOMS
4
ITEM: BOX BOUNDS pp pp pp
0.0000000000000000e+00 1.5850000000000000e+02
0.0000000000000000e+00 1.5850000000000000e+02
0.0000000000000000e+00 1.5850000000000000e+02
ITEM: ATOMS id type xs ys zs
1 1 0.0288053 0.304313 0.30914
2 2 0.0287409 0.313276 0.313015
4 1 0.0337331 0.32438 0.319107
3 3 0.0295415 0.315312 0.322051
ITEM: TIMESTEP
7800
ITEM: NUMBER OF ATOMS
4
ITEM: BOX BOUNDS pp pp pp
0.0000000000000000e+00 1.5850000000000000e+02
0.0000000000000000e+00 1.5850000000000000e+02
0.0000000000000000e+00 1.5850000000000000e+02
ITEM: ATOMS id type xs ys zs
1 1 0.0285737 0.304386 0.308786
2 2 0.0316899 0.31223 0.313356
4 1 0.0328839 0.324392 0.318967
3 3 0.0302198 0.315403 0.321865
ITEM: TIMESTEP
7900
ITEM: NUMBER OF ATOMS
4
ITEM: BOX BOUNDS pp pp pp
0.0000000000000000e+00 1.5850000000000000e+02
0.0000000000000000e+00 1.5850000000000000e+02
0.0000000000000000e+00 1.5850000000000000e+02
ITEM: ATOMS id type xs ys zs
1 1 0.0292021 0.304523 0.308833
2 2 0.0331862 0.312136 0.31337
4 1 0.0329621 0.324063 0.31843
3 3 0.0306929 0.314774 0.321984
ITEM: TIMESTEP
8000
ITEM: NUMBER OF ATOMS
4
ITEM: BOX BOUNDS pp pp pp
0.0000000000000000e+00 1.5850000000000000e+02
0.0000000000000000e+00 1.5850000000000000e+02
0.0000000000000000e+00 1.5850000000000000e+02
ITEM: ATOMS id type xs ys zs
1 1 0.0299543 0.304184 0.308927
2 2 0.0330363 0.312387 0.313119
4 1 0.0334562 0.323827 0.318486
3 3 0.0309694 0.31463 0.321902
ITEM: TIMESTEP
8100
ITEM: NUMBER OF ATOMS
4
ITEM: BOX BOUNDS pp pp pp
0.0000000000000000e+00 1.5850000000000000e+02
0.0000000000000000e+00 1.5850000000000000e+02
0.0000000000000000e+00 1.5850000000000000e+02