ITEM: TIMESTEP
0
ITEM: NUMBER OF ATOMS
100
ITEM: BOX BOUNDS ff ff ff
0.0000000000000000e+00 1.5850000000000000e+02
0.0000000000000000e+00 1.5850000000000000e+02
0.0000000000000000e+00 1.5850000000000000e+02
ITEM: ATOMS id type xs ys zs
1 2 0.242732 0.248909 0.247778
2 3 0.244345 0.251817 0.256771
3 1 0.252665 0.256402 0.256894
4 1 0.25456 0.259937 0.265828
5 2 0.263479 0.263504 0.266569
6 1 0.264483 0.267571 0.275224
7 1 0.273226 0.271681 0.275864
8 3 0.273534 0.276341 0.284213
9 1 0.281792 0.281467 0.284905
10 2 0.282718 0.285166 0.293833
11 3 0.290908 0.290383 0.294085
12 3 0.29245 0.294378 0.302801
13 2 0.300732 0.299214 0.302071
15 2 0.311533 0.306905 0.310202
14 3 0.303272 0.301975 0.310905
16 3 0.313189 0.310487 0.318932
17 2 0.321374 0.315632 0.318839
18 3 0.322888 0.319077 0.327738
19 2 0.330681 0.324906 0.327862
20 2 0.331731 0.32896 0.336399
21 3 0.33902 0.335346 0.336886
22 3 0.339656 0.339314 0.345683
23 2 0.347328 0.345245 0.346371
24 1 0.347584 0.349455 0.355042
25 1 0.355049 0.355467 0.355332
26 2 0.35607 0.358991 0.364123
27 1 0.364369 0.363975 0.36446
28 3 0.364701 0.368981 0.37274
29 3 0.372873 0.374195 0.372667
30 2 0.373888 0.378686 0.381107
31 3 0.382155 0.383527 0.381571
32 3 0.382971 0.387581 0.390381
33 2 0.391547 0.39206 0.390826
34 2 0.392536 0.396773 0.399263
35 1 0.40171 0.399455 0.400364
36 1 0.402535 0.404256 0.408595
37 1 0.411751 0.407233 0.410003
38 3 0.41134 0.412518 0.417946
39 3 0.420099 0.415891 0.420172
40 1 0.419354 0.42164 0.427925
41 1 0.42815 0.424532 0.430456
42 1 0.427986 0.430468 0.438036
43 2 0.436988 0.433521 0.43966
44 3 0.437208 0.44034 0.446621
45 1 0.446253 0.443285 0.448206
46 1 0.446581 0.44993 0.455179
47 3 0.455881 0.452497 0.456597
48 1 0.456066 0.459317 0.463525
49 3 0.464972 0.461765 0.465468
50 3 0.465032 0.46942 0.471478
51 2 0.47432 0.4709 0.473833
52 3 0.474996 0.47914 0.478831
53 2 0.483885 0.479588 0.48247
54 3 0.484778 0.487719 0.487684
55 2 0.493592 0.488128 0.491731
56 1 0.493863 0.495838 0.497338
57 1 0.502853 0.497054 0.5008
58 2 0.503508 0.505443 0.505472
59 2 0.51226 0.506757 0.509392
60 3 0.51267 0.515692 0.513238
61 3 0.52137 0.516548 0.517228
62 3 0.521757 0.525252 0.521325
63 2 0.530416 0.526337 0.525281
64 3 0.530565 0.534347 0.530684
65 1 0.539494 0.535474 0.53364
66 3 0.540159 0.543518 0.539044
67 1 0.549028 0.544399 0.542556
68 3 0.549077 0.551818 0.548667
69 1 0.557941 0.552496 0.552455
70 2 0.558255 0.559339 0.559043
71 1 0.567336 0.560504 0.562147
72 1 0.567002 0.567288 0.569156
73 2 0.576135 0.568533 0.572782
74 2 0.575926 0.575835 0.579051
75 2 0.584676 0.57718 0.582901
76 3 0.584163 0.584466 0.589095
77 1 0.592973 0.586588 0.591858
78 3 0.592367 0.594176 0.597936
79 1 0.601208 0.595417 0.601907
80 2 0.601048 0.602443 0.608408
81 1 0.60988 0.603623 0.612034
82 1 0.60966 0.611364 0.617607
83 3 0.618375 0.61312 0.621338
84 1 0.618056 0.620765 0.627075
85 3 0.627036 0.623011 0.629434
86 1 0.627132 0.630817 0.634992
87 1 0.636136 0.633459 0.637091
88 3 0.635819 0.640803 0.643375
89 1 0.64471 0.643591 0.645912
90 3 0.644023 0.651434 0.651582
91 1 0.652713 0.653747 0.654959
92 3 0.652359 0.661639 0.660722
93 2 0.66108 0.662995 0.664366
94 2 0.660366 0.670304 0.670511
95 3 0.668969 0.672295 0.674246
96 3 0.667839 0.679615 0.680554
97 2 0.676295 0.681244 0.685044
98 1 0.674785 0.688516 0.691262
99 3 0.682843 0.690353 0.696141
100 1 0.681233 0.69755 0.702357
ITEM: TIMESTEP
100
ITEM: NUMBER OF ATOMS
100
ITEM: BOX BOUNDS ff ff ff
0.0000000000000000e+00 1.5850000000000000e+02
0.0000000000000000e+00 1.5850000000000000e+02
0.0000000000000000e+00 1.5850000000000000e+02
ITEM: ATOMS id type xs ys zs
1 2 0.242846 0.248214 0.247556
2 3 0.244264 0.251437 0.256544
3 1 0.252667 0.256166 0.256974
4 1 0.254075 0.259451 0.26594
5 2 0.262449 0.264236 0.266307
6 1 0.263843 0.267669 0.275219
7 1 0.27217 0.27254 0.275468
8 3 0.273574 0.276148 0.284307
9 1 0.281875 0.281067 0.284419
10 2 0.283332 0.2848 0.293197
11 3 0.291647 0.289699 0.293213
12 3 0.293156 0.293487 0.301956
13 2 0.301502 0.298331 0.301937
15 2 0.311337 0.307006 0.310681
14 3 0.302994 0.30216 0.310665
16 3 0.312683 0.310923 0.319393
17 2 0.320961 0.315875 0.319495
18 3 0.322036 0.31997 0.328163
19 2 0.330203 0.325099 0.328362
20 2 0.330947 0.329434 0.336948
21 3 0.339005 0.334727 0.337239
22 3 0.339456 0.339296 0.345727
23 2 0.347482 0.344633 0.346084
24 1 0.34777 0.349376 0.354479
25 1 0.355875 0.354584 0.354907
26 2 0.356136 0.359422 0.363246
27 1 0.364414 0.364341 0.363752
28 3 0.364765 0.369224 0.372062
29 3 0.373261 0.373741 0.372679
30 2 0.373709 0.378638 0.380975
31 3 0.382418 0.382708 0.381762
32 3 0.382917 0.387616 0.390048
33 2 0.391794 0.391251 0.391059
34 2 0.392242 0.396202 0.399319
35 1 0.401213 0.399494 0.400613
36 1 0.401511 0.40457 0.408803
37 1 0.410517 0.407635 0.410363
38 3 0.41063 0.412948 0.418407
39 3 0.419635 0.415909 0.420185
40 1 0.419578 0.421569 0.427991
41 1 0.428572 0.424493 0.429855
42 1 0.42845 0.430583 0.437329
43 2 0.437461 0.433471 0.439164
44 3 0.437352 0.439981 0.446273
45 1 0.446404 0.442775 0.448047
46 1 0.446406 0.449613 0.45484
47 3 0.455526 0.452196 0.45659
48 1 0.455668 0.459237 0.463169
49 3 0.464839 0.461557 0.465026
50 3 0.46509 0.468708 0.47149
51 2 0.474292 0.470734 0.473531
52 3 0.474616 0.477932 0.479931
53 2 0.48381 0.479729 0.482202
54 3 0.484108 0.486997 0.488525
55 2 0.493274 0.488686 0.49098
56 1 0.493544 0.49609 0.497144
57 1 0.502687 0.497796 0.49967
58 2 0.502902 0.505392 0.505599
59 2 0.512026 0.507186 0.508131
60 3 0.512223 0.514948 0.513842
61 3 0.521351 0.516756 0.516394
62 3 0.521589 0.52458 0.522037
63 2 0.530693 0.526262 0.524713
64 3 0.530912 0.533998 0.530457
65 1 0.539975 0.535454 0.533395
66 3 0.540177 0.543004 0.539381
67 1 0.549166 0.54421 0.542643
68 3 0.549278 0.551561 0.548877
69 1 0.558188 0.552579 0.552411
70 2 0.558227 0.559795 0.558801
71 1 0.567085 0.560747 0.562483
72 1 0.56702 0.567941 0.568898
73 2 0.575842 0.568981 0.572641
74 2 0.575695 0.576229 0.578994
75 2 0.584509 0.57739 0.58272
76 3 0.584296 0.584719 0.58898
77 1 0.593097 0.586041 0.592686
78 3 0.592816 0.593458 0.598841
79 1 0.601628 0.594922 0.602471
80 2 0.601354 0.602446 0.608495
81 1 0.6102 0.604065 0.611974
82 1 0.609936 0.611742 0.617801
83 3 0.618827 0.613554 0.621065
84 1 0.618608 0.6214 0.626665
85 3 0.627541 0.623386 0.629709
86 1 0.627325 0.631363 0.635125
87 1 0.636256 0.633493 0.638081
88 3 0.635966 0.641505 0.643445
89 1 0.644854 0.643676 0.646506
90 3 0.644427 0.6516 0.651991
91 1 0.653219 0.653722 0.655345
92 3 0.652586 0.661451 0.661082
93 2 0.661251 0.663452 0.664819
94 2 0.660402 0.670944 0.670838
95 3 0.668937 0.672821 0.674927
96 3 0.667907 0.680107 0.681171
97 2 0.676347 0.681903 0.685492
98 1 0.67521 0.689069 0.691858
99 3 0.683606 0.690839 0.696278
100 1 0.682428 0.697969 0.702678
ITEM: TIMESTEP
144
ITEM: NUMBER OF ATOMS
100
ITEM: BOX BOUNDS ff ff ff
0.0000000000000000e+00 1.5850000000000000e+02
0.0000000000000000e+00 1.5850000000000000e+02
0.0000000000000000e+00 1.5850000000000000e+02
ITEM: ATOMS id type xs ys zs
1 2 0.242846 0.248214 0.247556
2 3 0.244264 0.251437 0.256544
3 1 0.252667 0.256166 0.256974
4 1 0.254075 0.259451 0.26594
5 2 0.262449 0.264236 0.266307
6 1 0.263843 0.267669 0.275219
7 1 0.27217 0.27254 0.275468
8 3 0.273574 0.276148 0.284307
9 1 0.281876 0.281066 0.284419
10 2 0.283332 0.2848 0.293196
11 3 0.291647 0.289699 0.293212
12 3 0.293156 0.293487 0.301957
13 2 0.301502 0.298331 0.301937
15 2 0.311337 0.307006 0.310681
14 3 0.302993 0.30216 0.310665
16 3 0.312682 0.310923 0.319393
17 2 0.320961 0.315875 0.319496
18 3 0.322035 0.319971 0.328163
19 2 0.330203 0.325099 0.328362
20 2 0.330946 0.329434 0.336948
21 3 0.339005 0.334727 0.337239
22 3 0.339456 0.339296 0.345727
23 2 0.347482 0.344633 0.346084
24 1 0.34777 0.349377 0.354478
25 1 0.355875 0.354584 0.354907
26 2 0.356136 0.359422 0.363246
27 1 0.364415 0.36434 0.363752
28 3 0.364763 0.369223 0.372061
29 3 0.373263 0.373741 0.372678
30 2 0.373709 0.378638 0.380974
31 3 0.382418 0.382707 0.381761
32 3 0.382917 0.387616 0.390049
33 2 0.391794 0.39125 0.391059
34 2 0.392242 0.396202 0.39932
35 1 0.401212 0.399494 0.400613
36 1 0.401511 0.40457 0.408803
37 1 0.410517 0.407635 0.410363
38 3 0.410629 0.412947 0.418407
39 3 0.419635 0.415909 0.420185
40 1 0.419577 0.421569 0.427991
41 1 0.428572 0.424494 0.429854
42 1 0.42845 0.430583 0.437329
43 2 0.437461 0.433471 0.439163
44 3 0.437352 0.439981 0.446273
45 1 0.446405 0.442775 0.448047
46 1 0.446406 0.449613 0.45484
47 3 0.455526 0.452196 0.45659
48 1 0.455669 0.459237 0.463169
49 3 0.464839 0.461557 0.465025
50 3 0.46509 0.468708 0.471491
51 2 0.474292 0.470734 0.473531
52 3 0.474616 0.477932 0.479931
53 2 0.48381 0.479729 0.482202
54 3 0.484108 0.486997 0.488525
55 2 0.493274 0.488687 0.49098
56 1 0.493544 0.49609 0.497144
57 1 0.502687 0.497797 0.49967
58 2 0.502902 0.505392 0.505599
59 2 0.512026 0.507187 0.508131
60 3 0.512224 0.514948 0.513842
61 3 0.52135 0.516757 0.516394
62 3 0.521589 0.524579 0.522036
63 2 0.530693 0.526262 0.524713
64 3 0.530912 0.533998 0.530458
65 1 0.539975 0.535453 0.533395
66 3 0.540177 0.543003 0.539381
67 1 0.549167 0.54421 0.542643
68 3 0.549278 0.551561 0.548877
69 1 0.558188 0.55258 0.552411
70 2 0.558227 0.559795 0.558801
71 1 0.567085 0.560747 0.562483
72 1 0.56702 0.567941 0.568897
73 2 0.575842 0.568981 0.572641
74 2 0.575694 0.576229 0.578994
75 2 0.584509 0.57739 0.58272
76 3 0.584297 0.584719 0.58898
77 1 0.593098 0.586041 0.592686
78 3 0.592816 0.593458 0.598842
79 1 0.601628 0.594922 0.602471
80 2 0.601355 0.602446 0.608495
81 1 0.6102 0.604065 0.611974
82 1 0.609937 0.611742 0.617801
83 3 0.618827 0.613554 0.621065
84 1 0.618608 0.6214 0.626665
85 3 0.627542 0.623386 0.629709
86 1 0.627325 0.631363 0.635125
87 1 0.636256 0.633493 0.638081
88 3 0.635967 0.641505 0.643445
89 1 0.644854 0.643676 0.646506
90 3 0.644427 0.6516 0.651991
91 1 0.65322 0.653722 0.655346
92 3 0.652586 0.661451 0.661083
93 2 0.661251 0.663452 0.664819
94 2 0.660402 0.670944 0.670839
95 3 0.668937 0.67282 0.674928
96 3 0.667907 0.680108 0.681171
97 2 0.676347 0.681903 0.685493
98 1 0.67521 0.689069 0.691859
99 3 0.683607 0.69084 0.696278
100 1 0.682429 0.69797 0.702678
