ITEM: TIMESTEP
0
ITEM: NUMBER OF ATOMS
100
ITEM: BOX BOUNDS ff ff ff
0.0000000000000000e+00 1.5850000000000000e+02
0.0000000000000000e+00 1.5850000000000000e+02
0.0000000000000000e+00 1.5850000000000000e+02
ITEM: ATOMS id type xs ys zs
1 2 0.242732 0.248909 0.247778
2 3 0.244345 0.251817 0.256771
3 1 0.252665 0.256402 0.256894
4 1 0.25456 0.259937 0.265828
5 2 0.263479 0.263504 0.266569
6 1 0.264483 0.267571 0.275224
7 1 0.273226 0.271681 0.275864
8 3 0.273534 0.276341 0.284213
9 1 0.281792 0.281467 0.284905
10 2 0.282718 0.285166 0.293833
11 3 0.290908 0.290383 0.294085
12 3 0.29245 0.294378 0.302801
13 2 0.300732 0.299214 0.302071
15 2 0.311533 0.306905 0.310202
14 3 0.303272 0.301975 0.310905
16 3 0.313189 0.310487 0.318932
17 2 0.321374 0.315632 0.318839
18 3 0.322888 0.319077 0.327738
19 2 0.330681 0.324906 0.327862
20 2 0.331731 0.32896 0.336399
21 3 0.33902 0.335346 0.336886
22 3 0.339656 0.339314 0.345683
23 2 0.347328 0.345245 0.346371
24 1 0.347584 0.349455 0.355042
25 1 0.355049 0.355467 0.355332
26 2 0.35607 0.358991 0.364123
27 1 0.364369 0.363975 0.36446
28 3 0.364701 0.368981 0.37274
29 3 0.372873 0.374195 0.372667
30 2 0.373888 0.378686 0.381107
31 3 0.382155 0.383527 0.381571
32 3 0.382971 0.387581 0.390381
33 2 0.391547 0.39206 0.390826
34 2 0.392536 0.396773 0.399263
35 1 0.40171 0.399455 0.400364
36 1 0.402535 0.404256 0.408595
37 1 0.411751 0.407233 0.410003
38 3 0.41134 0.412518 0.417946
39 3 0.420099 0.415891 0.420172
40 1 0.419354 0.42164 0.427925
41 1 0.42815 0.424532 0.430456
42 1 0.427986 0.430468 0.438036
43 2 0.436988 0.433521 0.43966
44 3 0.437208 0.44034 0.446621
45 1 0.446253 0.443285 0.448206
46 1 0.446581 0.44993 0.455179
47 3 0.455881 0.452497 0.456597
48 1 0.456066 0.459317 0.463525
49 3 0.464972 0.461765 0.465468
50 3 0.465032 0.46942 0.471478
51 2 0.47432 0.4709 0.473833
52 3 0.474996 0.47914 0.478831
53 2 0.483885 0.479588 0.48247
54 3 0.484778 0.487719 0.487684
55 2 0.493592 0.488128 0.491731
56 1 0.493863 0.495838 0.497338
57 1 0.502853 0.497054 0.5008
58 2 0.503508 0.505443 0.505472
59 2 0.51226 0.506757 0.509392
60 3 0.51267 0.515692 0.513238
61 3 0.52137 0.516548 0.517228
62 3 0.521757 0.525252 0.521325
63 2 0.530416 0.526337 0.525281
64 3 0.530565 0.534347 0.530684
65 1 0.539494 0.535474 0.53364
66 3 0.540159 0.543518 0.539044
67 1 0.549028 0.544399 0.542556
68 3 0.549077 0.551818 0.548667
69 1 0.557941 0.552496 0.552455
70 2 0.558255 0.559339 0.559043
71 1 0.567336 0.560504 0.562147
72 1 0.567002 0.567288 0.569156
73 2 0.576135 0.568533 0.572782
74 2 0.575926 0.575835 0.579051
75 2 0.584676 0.57718 0.582901
76 3 0.584163 0.584466 0.589095
77 1 0.592973 0.586588 0.591858
78 3 0.592367 0.594176 0.597936
79 1 0.601208 0.595417 0.601907
80 2 0.601048 0.602443 0.608408
81 1 0.60988 0.603623 0.612034
82 1 0.60966 0.611364 0.617607
83 3 0.618375 0.61312 0.621338
84 1 0.618056 0.620765 0.627075
85 3 0.627036 0.623011 0.629434
86 1 0.627132 0.630817 0.634992
87 1 0.636136 0.633459 0.637091
88 3 0.635819 0.640803 0.643375
89 1 0.64471 0.643591 0.645912
90 3 0.644023 0.651434 0.651582
91 1 0.652713 0.653747 0.654959
92 3 0.652359 0.661639 0.660722
93 2 0.66108 0.662995 0.664366
94 2 0.660366 0.670304 0.670511
95 3 0.668969 0.672295 0.674246
96 3 0.667839 0.679615 0.680554
97 2 0.676295 0.681244 0.685044
98 1 0.674785 0.688516 0.691262
99 3 0.682843 0.690353 0.696141
100 1 0.681233 0.69755 0.702357
ITEM: TIMESTEP
100
ITEM: NUMBER OF ATOMS
100
ITEM: BOX BOUNDS ff ff ff
0.0000000000000000e+00 1.5850000000000000e+02
0.0000000000000000e+00 1.5850000000000000e+02
0.0000000000000000e+00 1.5850000000000000e+02
ITEM: ATOMS id type xs ys zs
1 2 0.242846 0.248214 0.247556
2 3 0.244264 0.251437 0.256544
3 1 0.252667 0.256166 0.256974
4 1 0.254075 0.259451 0.26594
5 2 0.262449 0.264236 0.266307
6 1 0.263843 0.267669 0.275219
7 1 0.27217 0.27254 0.275468
8 3 0.273574 0.276148 0.284307
9 1 0.281875 0.281067 0.284419
10 2 0.283332 0.2848 0.293197
11 3 0.291647 0.289699 0.293213
12 3 0.293156 0.293487 0.301956
13 2 0.301502 0.298331 0.301937
15 2 0.311337 0.307006 0.310681
14 3 0.302994 0.30216 0.310665
16 3 0.312683 0.310923 0.319393
17 2 0.320961 0.315875 0.319495
18 3 0.322036 0.31997 0.328163
19 2 0.330203 0.325099 0.328362
20 2 0.330947 0.329434 0.336948
21 3 0.339005 0.334727 0.337239
22 3 0.339456 0.339296 0.345727
23 2 0.347482 0.344633 0.346084
24 1 0.34777 0.349376 0.354479
25 1 0.355875 0.354584 0.354907
26 2 0.356136 0.359422 0.363246
27 1 0.364414 0.364341 0.363752
28 3 0.364765 0.369224 0.372062
29 3 0.373261 0.373741 0.372679
30 2 0.373709 0.378638 0.380975
31 3 0.382418 0.382708 0.381762
32 3 0.382917 0.387616 0.390048
33 2 0.391794 0.391251 0.391059
34 2 0.392242 0.396202 0.399319
35 1 0.401213 0.399494 0.400613
36 1 0.401511 0.40457 0.408803
37 1 0.410517 0.407635 0.410363
38 3 0.41063 0.412948 0.418407
39 3 0.419635 0.415909 0.420185
40 1 0.419578 0.421569 0.427991
41 1 0.428572 0.424493 0.429855
42 1 0.42845 0.430583 0.437329
43 2 0.437461 0.433471 0.439164
44 3 0.437352 0.439981 0.446273
45 1 0.446404 0.442775 0.448047
46 1 0.446406 0.449613 0.45484
47 3 0.455526 0.452196 0.45659
48 1 0.455668 0.459237 0.463169
49 3 0.464839 0.461557 0.465026
50 3 0.46509 0.468708 0.47149
51 2 0.474292 0.470734 0.473531
52 3 0.474616 0.477932 0.479931
53 2 0.48381 0.479729 0.482202
54 3 0.484108 0.486997 0.488525
55 2 0.493274 0.488686 0.49098
56 1 0.493544 0.49609 0.497144
57 1 0.502687 0.497796 0.49967
58 2 0.502902 0.505392 0.505599
59 2 0.512026 0.507186 0.508131
60 3 0.512223 0.514948 0.513842
61 3 0.521351 0.516756 0.516394
62 3 0.521589 0.52458 0.522037
63 2 0.530693 0.526262 0.524713
64 3 0.530912 0.533998 0.530457
65 1 0.539975 0.535454 0.533395
66 3 0.540177 0.543004 0.539381
67 1 0.549166 0.54421 0.542643
68 3 0.549278 0.551561 0.548877
69 1 0.558188 0.552579 0.552411
70 2 0.558227 0.559795 0.558801
71 1 0.567085 0.560747 0.562483
72 1 0.56702 0.567941 0.568898
73 2 0.575842 0.568981 0.572641
74 2 0.575695 0.576229 0.578994
75 2 0.584509 0.57739 0.58272
76 3 0.584296 0.584719 0.58898
77 1 0.593097 0.586041 0.592686
78 3 0.592816 0.593458 0.598841
79 1 0.601628 0.594922 0.602471
80 2 0.601354 0.602446 0.608495
81 1 0.6102 0.604065 0.611974
82 1 0.609936 0.611742 0.617801
83 3 0.618827 0.613554 0.621065
84 1 0.618608 0.6214 0.626665
85 3 0.627541 0.623386 0.629709
86 1 0.627325 0.631363 0.635125
87 1 0.636256 0.633493 0.638081
88 3 0.635966 0.641505 0.643445
89 1 0.644854 0.643676 0.646506
90 3 0.644427 0.6516 0.651991
91 1 0.653219 0.653722 0.655345
92 3 0.652586 0.661451 0.661082
93 2 0.661251 0.663452 0.664819
94 2 0.660402 0.670944 0.670838
95 3 0.668937 0.672821 0.674927
96 3 0.667907 0.680107 0.681171
97 2 0.676347 0.681903 0.685492
98 1 0.67521 0.689069 0.691858
99 3 0.683606 0.690839 0.696278
100 1 0.682428 0.697969 0.702678
ITEM: TIMESTEP
144
ITEM: NUMBER OF ATOMS
100
ITEM: BOX BOUNDS ff ff ff
0.0000000000000000e+00 1.5850000000000000e+02
0.0000000000000000e+00 1.5850000000000000e+02
0.0000000000000000e+00 1.5850000000000000e+02
ITEM: ATOMS id type xs ys zs
1 2 0.242846 0.248214 0.247556
2 3 0.244264 0.251437 0.256544
3 1 0.252667 0.256166 0.256974
4 1 0.254075 0.259451 0.26594
5 2 0.262449 0.264236 0.266307
6 1 0.263843 0.267669 0.275219
7 1 0.27217 0.27254 0.275468
8 3 0.273574 0.276148 0.284307
9 1 0.281876 0.281066 0.284419
10 2 0.283332 0.2848 0.293196
11 3 0.291647 0.289699 0.293212
12 3 0.293156 0.293487 0.301957
13 2 0.301502 0.298331 0.301937
15 2 0.311337 0.307006 0.310681
14 3 0.302993 0.30216 0.310665
16 3 0.312682 0.310923 0.319393
17 2 0.320961 0.315875 0.319496
18 3 0.322035 0.319971 0.328163
19 2 0.330203 0.325099 0.328362
20 2 0.330946 0.329434 0.336948
21 3 0.339005 0.334727 0.337239
22 3 0.339456 0.339296 0.345727
23 2 0.347482 0.344633 0.346084
24 1 0.34777 0.349377 0.354478
25 1 0.355875 0.354584 0.354907
26 2 0.356136 0.359422 0.363246
27 1 0.364415 0.36434 0.363752
28 3 0.364763 0.369223 0.372061
29 3 0.373263 0.373741 0.372678
30 2 0.373709 0.378638 0.380974
31 3 0.382418 0.382707 0.381761
32 3 0.382917 0.387616 0.390049
33 2 0.391794 0.39125 0.391059
34 2 0.392242 0.396202 0.39932
35 1 0.401212 0.399494 0.400613
36 1 0.401511 0.40457 0.408803
37 1 0.410517 0.407635 0.410363
38 3 0.410629 0.412947 0.418407
39 3 0.419635 0.415909 0.420185
40 1 0.419577 0.421569 0.427991
41 1 0.428572 0.424494 0.429854
42 1 0.42845 0.430583 0.437329
43 2 0.437461 0.433471 0.439163
44 3 0.437352 0.439981 0.446273
45 1 0.446405 0.442775 0.448047
46 1 0.446406 0.449613 0.45484
47 3 0.455526 0.452196 0.45659
48 1 0.455669 0.459237 0.463169
49 3 0.464839 0.461557 0.465025
50 3 0.46509 0.468708 0.471491
51 2 0.474292 0.470734 0.473531
52 3 0.474616 0.477932 0.479931
53 2 0.48381 0.479729 0.482202
54 3 0.484108 0.486997 0.488525
55 2 0.493274 0.488687 0.49098
56 1 0.493544 0.49609 0.497144
57 1 0.502687 0.497797 0.49967
58 2 0.502902 0.505392 0.505599
59 2 0.512026 0.507187 0.508131
60 3 0.512224 0.514948 0.513842
61 3 0.52135 0.516757 0.516394
62 3 0.521589 0.524579 0.522036
63 2 0.530693 0.526262 0.524713
64 3 0.530912 0.533998 0.530458
65 1 0.539975 0.535453 0.533395
66 3 0.540177 0.543003 0.539381
67 1 0.549167 0.54421 0.542643
68 3 0.549278 0.551561 0.548877
69 1 0.558188 0.55258 0.552411
70 2 0.558227 0.559795 0.558801
71 1 0.567085 0.560747 0.562483
72 1 0.56702 0.567941 0.568897
73 2 0.575842 0.568981 0.572641
74 2 0.575694 0.576229 0.578994
75 2 0.584509 0.57739 0.58272
76 3 0.584297 0.584719 0.58898
77 1 0.593098 0.586041 0.592686
78 3 0.592816 0.593458 0.598842
79 1 0.601628 0.594922 0.602471
80 2 0.601355 0.602446 0.608495
81 1 0.6102 0.604065 0.611974
82 1 0.609937 0.611742 0.617801
83 3 0.618827 0.613554 0.621065
84 1 0.618608 0.6214 0.626665
85 3 0.627542 0.623386 0.629709
86 1 0.627325 0.631363 0.635125
87 1 0.636256 0.633493 0.638081
88 3 0.635967 0.641505 0.643445
89 1 0.644854 0.643676 0.646506
90 3 0.644427 0.6516 0.651991
91 1 0.65322 0.653722 0.655346
92 3 0.652586 0.661451 0.661083
93 2 0.661251 0.663452 0.664819
94 2 0.660402 0.670944 0.670839
95 3 0.668937 0.67282 0.674928
96 3 0.667907 0.680108 0.681171
97 2 0.676347 0.681903 0.685493
98 1 0.67521 0.689069 0.691859
99 3 0.683607 0.69084 0.696278
100 1 0.682429 0.69797 0.702678
ITEM: TIMESTEP
200
ITEM: NUMBER OF ATOMS
100
ITEM: BOX BOUNDS ff ff ff
0.0000000000000000e+00 1.5850000000000000e+02
0.0000000000000000e+00 1.5850000000000000e+02
0.0000000000000000e+00 1.5850000000000000e+02
ITEM: ATOMS id type xs ys zs
1 2 0.240543 0.2493 0.250171
2 3 0.24436 0.252682 0.258627
3 1 0.252327 0.258181 0.257243
4 1 0.255874 0.25987 0.266005
5 2 0.26302 0.266264 0.265969
6 1 0.265049 0.268219 0.275047
7 1 0.272725 0.273868 0.275132
8 3 0.275354 0.275081 0.284364
9 1 0.28334 0.280756 0.284391
10 2 0.285547 0.283495 0.293438
11 3 0.29324 0.289123 0.292798
12 3 0.293715 0.293981 0.30114
13 2 0.301888 0.298796 0.301684
14 3 0.302297 0.303532 0.310085
15 2 0.310643 0.307996 0.310945
16 3 0.311648 0.31194 0.319518
17 2 0.320287 0.315934 0.320271
18 3 0.322256 0.320112 0.328737
19 2 0.329318 0.325933 0.328205
20 2 0.330181 0.329794 0.33686
21 3 0.337539 0.33618 0.336896
22 3 0.338994 0.339031 0.346191
23 2 0.346779 0.344518 0.347112
24 1 0.347736 0.348652 0.355403
25 1 0.3556 0.353898 0.355512
26 2 0.356499 0.358489 0.363858
27 1 0.364658 0.363896 0.363688
28 3 0.365537 0.368592 0.372172
29 3 0.37386 0.373009 0.372105
30 2 0.374744 0.377335 0.381014
31 3 0.383265 0.382276 0.381263
32 3 0.384307 0.385638 0.390294
33 2 0.392602 0.390453 0.391212
34 2 0.392301 0.394691 0.40003
35 1 0.400695 0.399453 0.40102
36 1 0.401807 0.403237 0.409645
37 1 0.409822 0.408232 0.410487
38 3 0.410364 0.413296 0.418766
39 3 0.418972 0.41722 0.419628
40 1 0.419948 0.421952 0.427965
41 1 0.428862 0.42471 0.429671
42 1 0.429555 0.428666 0.438454
43 2 0.438195 0.433621 0.438799
44 3 0.438175 0.43952 0.446313
45 1 0.446664 0.443449 0.447866
46 1 0.446703 0.44914 0.45569
47 3 0.456197 0.451734 0.457427
48 1 0.455732 0.458079 0.464883
49 3 0.464509 0.461521 0.465405
50 3 0.465493 0.467701 0.472824
51 2 0.474639 0.470403 0.473525
52 3 0.474871 0.478471 0.47912
53 2 0.484022 0.479216 0.482556
54 3 0.484305 0.486778 0.488649
55 2 0.493139 0.4882 0.492106
56 1 0.492707 0.496538 0.496994
57 1 0.501796 0.498645 0.499411
58 2 0.50205 0.50526 0.506385
59 2 0.51144 0.507457 0.508208
60 3 0.511977 0.514765 0.514624
61 3 0.520973 0.518444 0.514541
62 3 0.521631 0.525994 0.520423
63 2 0.530808 0.527364 0.522482
64 3 0.530583 0.534135 0.529279
65 1 0.539172 0.53539 0.533403
66 3 0.540056 0.543473 0.538547
67 1 0.548755 0.543931 0.542467
68 3 0.548785 0.552446 0.547181
69 1 0.55683 0.551887 0.552587
70 2 0.55791 0.560389 0.557348
71 1 0.566823 0.561207 0.561163
72 1 0.566397 0.567926 0.568147
73 2 0.574858 0.568476 0.572699
74 2 0.574622 0.57507 0.579812
75 2 0.583893 0.576465 0.583048
76 3 0.583479 0.584111 0.588996
77 1 0.592854 0.586706 0.590987
78 3 0.592901 0.592199 0.59888
79 1 0.601715 0.595345 0.601682
80 2 0.600919 0.602242 0.608468
81 1 0.609745 0.602797 0.612599
82 1 0.6106 0.611466 0.616715
83 3 0.618847 0.612354 0.621201
84 1 0.619602 0.620975 0.625449
85 3 0.628222 0.623117 0.629242
86 1 0.628047 0.631637 0.633964
87 1 0.636651 0.633808 0.637895
88 3 0.635126 0.641059 0.644223
89 1 0.644169 0.644449 0.646509
90 3 0.643357 0.651833 0.652992
91 1 0.652186 0.654433 0.65672
92 3 0.65212 0.661807 0.662844
93 2 0.661165 0.663716 0.666256
94 2 0.660917 0.67101 0.672206
95 3 0.669733 0.673385 0.674572
96 3 0.669098 0.680614 0.680777
97 2 0.677795 0.681799 0.685148
98 1 0.676761 0.689929 0.690686
99 3 0.684653 0.691715 0.696158
100 1 0.682028 0.6971 0.703825
ITEM: TIMESTEP
300
ITEM: NUMBER OF ATOMS
100
ITEM: BOX BOUNDS ff ff ff
0.0000000000000000e+00 1.5850000000000000e+02
0.0000000000000000e+00 1.5850000000000000e+02
0.0000000000000000e+00 1.5850000000000000e+02
ITEM: ATOMS id type xs ys zs
1 2 0.237351 0.253128 0.253669
2 3 0.244073 0.253242 0.260542
3 1 0.250063 0.261131 0.259549
4 1 0.255825 0.261343 0.267368
5 2 0.262716 0.26781 0.266204
6 1 0.268147 0.268527 0.274242
7 1 0.275747 0.274266 0.273557
8 3 0.27929 0.274824 0.282551
9 1 0.286842 0.280845 0.283191
10 2 0.288362 0.282333 0.292443
11 3 0.29525 0.289211 0.293072
12 3 0.295404 0.29284 0.302003
13 2 0.301356 0.300682 0.301234
14 3 0.302898 0.303855 0.310099
15 2 0.310413 0.310186 0.3099
16 3 0.311359 0.312896 0.31952
17 2 0.319163 0.318811 0.32024
18 3 0.31926 0.321879 0.329178
19 2 0.327905 0.327063 0.329473
20 2 0.328593 0.330942 0.33844
21 3 0.336755 0.336104 0.338844
22 3 0.337513 0.339687 0.347661
23 2 0.345426 0.344992 0.347221
24 1 0.347716 0.348231 0.356193
25 1 0.355617 0.353661 0.355666
26 2 0.358357 0.356424 0.364685
27 1 0.365097 0.36327 0.364021
28 3 0.367275 0.366167 0.372924
29 3 0.375069 0.371996 0.372867
30 2 0.377482 0.374874 0.381524
31 3 0.38457 0.38123 0.381829
32 3 0.386336 0.383119 0.391085
33 2 0.393499 0.3894 0.392251
34 2 0.394427 0.392396 0.401317
35 1 0.401156 0.399229 0.40133
36 1 0.402159 0.402547 0.410395
37 1 0.408295 0.410179 0.410344
38 3 0.410426 0.412127 0.419621
39 3 0.418273 0.41776 0.419912
40 1 0.42055 0.420299 0.428858
41 1 0.428517 0.426131 0.428245
42 1 0.430417 0.429059 0.437501
43 2 0.438347 0.434163 0.438444
44 3 0.439551 0.436855 0.447774
45 1 0.447246 0.442208 0.448452
46 1 0.447376 0.446673 0.456919
47 3 0.455656 0.451583 0.457439
48 1 0.456397 0.456546 0.46566
49 3 0.465679 0.459533 0.466313
50 3 0.465647 0.466403 0.473125
51 2 0.474646 0.469628 0.47465
52 3 0.474729 0.47644 0.481439
53 2 0.483425 0.480674 0.482008
54 3 0.483727 0.486414 0.489591
55 2 0.492469 0.490142 0.490956
56 1 0.492141 0.49524 0.498806
57 1 0.500999 0.497536 0.501206
58 2 0.5015 0.50586 0.506287
59 2 0.51049 0.508758 0.506979
60 3 0.510588 0.517552 0.510995
61 3 0.519692 0.518841 0.513975
62 3 0.520576 0.527275 0.518521
63 2 0.529861 0.528667 0.521426
64 3 0.530873 0.536779 0.526561
65 1 0.5396 0.537009 0.530632
66 3 0.539195 0.543746 0.537372
67 1 0.547951 0.544627 0.54134
68 3 0.548162 0.552407 0.546707
69 1 0.556991 0.553825 0.550385
70 2 0.557031 0.561139 0.556569
71 1 0.565145 0.56062 0.561536
72 1 0.565357 0.567454 0.567983
73 2 0.573794 0.568266 0.572542
74 2 0.574194 0.575447 0.578836
75 2 0.582902 0.576241 0.582845
76 3 0.583479 0.583835 0.589236
77 1 0.591936 0.585008 0.592821
78 3 0.592528 0.592824 0.598571
79 1 0.601252 0.59393 0.601979
80 2 0.601732 0.601856 0.607603
81 1 0.611044 0.603052 0.610659
82 1 0.611857 0.610062 0.61722
83 3 0.620972 0.613144 0.619422
84 1 0.619828 0.620481 0.625586
85 3 0.628469 0.623514 0.628581
86 1 0.627862 0.631884 0.633315
87 1 0.636084 0.63363 0.638165
88 3 0.635315 0.641857 0.643349
89 1 0.64318 0.644181 0.648507
90 3 0.642389 0.651801 0.654579
91 1 0.650927 0.653438 0.658722
92 3 0.651478 0.661779 0.664105
93 2 0.660295 0.663283 0.666925
94 2 0.661036 0.670918 0.672919
95 3 0.670105 0.673714 0.674438
96 3 0.669683 0.681468 0.680184
97 2 0.678423 0.683024 0.683932
98 1 0.677524 0.689617 0.690909
99 3 0.68581 0.690749 0.695932
100 1 0.684485 0.696971 0.703126
ITEM: TIMESTEP
400
ITEM: NUMBER OF ATOMS
100
ITEM: BOX BOUNDS ff ff ff
0.0000000000000000e+00 1.5850000000000000e+02
0.0000000000000000e+00 1.5850000000000000e+02
0.0000000000000000e+00 1.5850000000000000e+02
ITEM: ATOMS id type xs ys zs
1 2 0.235477 0.258035 0.256471
2 3 0.242298 0.256922 0.263511
3 1 0.249051 0.263303 0.261817
4 1 0.256011 0.261897 0.26847
5 2 0.26309 0.268535 0.267393
6 1 0.270374 0.266205 0.273097
7 1 0.276591 0.273848 0.273403
8 3 0.282906 0.273164 0.280726
9 1 0.287907 0.281132 0.280727
10 2 0.29177 0.282363 0.28956
11 3 0.295573 0.290903 0.290763
12 3 0.298689 0.292106 0.29971
13 2 0.303303 0.29998 0.301261
14 3 0.303876 0.302973 0.310449
15 2 0.308876 0.311657 0.310958
16 3 0.309856 0.31474 0.319814
17 2 0.316028 0.322113 0.320465
18 3 0.318236 0.323839 0.329889
19 2 0.325538 0.330349 0.330821
20 2 0.327956 0.331565 0.340099
21 3 0.335347 0.337745 0.340808
22 3 0.337745 0.339988 0.349674
23 2 0.345298 0.345788 0.34865
24 1 0.348478 0.348426 0.357616
25 1 0.35624 0.35469 0.356171
26 2 0.359225 0.356686 0.365176
27 1 0.36725 0.361783 0.365053
28 3 0.370437 0.362647 0.37425
29 3 0.37634 0.370634 0.374925
30 2 0.379541 0.371811 0.383586
31 3 0.385798 0.378904 0.383397
32 3 0.38883 0.38064 0.392344
33 2 0.393293 0.389411 0.392724
34 2 0.396613 0.391125 0.401404
35 1 0.400715 0.399727 0.401379
36 1 0.403148 0.40186 0.410727
37 1 0.409792 0.409093 0.410312
38 3 0.411541 0.410487 0.419569
39 3 0.416999 0.418725 0.419771
40 1 0.420668 0.419803 0.42886
41 1 0.427416 0.426781 0.428974
42 1 0.429739 0.428559 0.43832
43 2 0.437728 0.433751 0.438921
44 3 0.43962 0.436115 0.447944
45 1 0.447875 0.441298 0.447939
46 1 0.449892 0.443458 0.45705
47 3 0.456683 0.449542 0.457275
48 1 0.457774 0.452957 0.466217
49 3 0.464969 0.459615 0.4661
50 3 0.466257 0.463566 0.474719
51 2 0.473363 0.470181 0.474854
52 3 0.473928 0.474737 0.483113
53 2 0.482183 0.479654 0.483278
54 3 0.482224 0.485807 0.490817
55 2 0.491207 0.488467 0.492929
56 1 0.491592 0.496217 0.498807
57 1 0.500765 0.49927 0.49921
58 2 0.500262 0.507267 0.504408
59 2 0.50953 0.509393 0.506389
60 3 0.510236 0.517896 0.510695
61 3 0.519502 0.520414 0.511916
62 3 0.51993 0.528956 0.516468
63 2 0.52902 0.530328 0.519931
64 3 0.529525 0.538105 0.52587
65 1 0.538822 0.539413 0.529039
66 3 0.539533 0.547491 0.534396
67 1 0.548406 0.548 0.538406
68 3 0.548272 0.553058 0.54672
69 1 0.557135 0.554497 0.550525
70 2 0.556332 0.559732 0.558495
71 1 0.565309 0.561435 0.562349
72 1 0.565469 0.569354 0.568021
73 2 0.5736 0.569318 0.573068
74 2 0.574211 0.57727 0.579139
75 2 0.582777 0.577157 0.583579
76 3 0.583586 0.584458 0.589963
77 1 0.591992 0.583857 0.594467
78 3 0.593699 0.592398 0.598549
79 1 0.602479 0.592817 0.60224
80 2 0.603385 0.601101 0.607549
81 1 0.612436 0.603785 0.609653
82 1 0.612029 0.611702 0.615592
83 3 0.621033 0.61433 0.618897
84 1 0.619624 0.621893 0.624777
85 3 0.628259 0.624367 0.628733
86 1 0.626955 0.630603 0.635861
87 1 0.635652 0.634274 0.638029
88 3 0.634898 0.641203 0.644695
89 1 0.642827 0.642436 0.649298
90 3 0.642916 0.650667 0.654521
91 1 0.651701 0.651918 0.658174
92 3 0.650856 0.660349 0.663003
93 2 0.659273 0.662313 0.666869
94 2 0.659131 0.671704 0.670016
95 3 0.667157 0.672475 0.675636
96 3 0.66788 0.680735 0.680861
97 2 0.676862 0.682058 0.684232
98 1 0.677773 0.688597 0.690954
99 3 0.6869 0.689082 0.693416
100 1 0.688021 0.696421 0.699592
ITEM: TIMESTEP
500
ITEM: NUMBER OF ATOMS
100
ITEM: BOX BOUNDS ff ff ff
0.0000000000000000e+00 1.5850000000000000e+02
0.0000000000000000e+00 1.5850000000000000e+02
0.0000000000000000e+00 1.5850000000000000e+02
ITEM: ATOMS id type xs ys zs
1 2 0.234281 0.264626 0.260778
2 3 0.240665 0.260072 0.265987
3 1 0.249085 0.26483 0.264436
4 1 0.256852 0.26207 0.269203
5 2 0.264212 0.267947 0.267062
6 1 0.271291 0.26696 0.273965
7 1 0.278075 0.273773 0.27276
8 3 0.284703 0.273472 0.28
9 1 0.289273 0.2823 0.280761
10 2 0.295481 0.282791 0.288274
11 3 0.298849 0.292193 0.289084
12 3 0.301763 0.293103 0.298373
13 2 0.303793 0.302778 0.300168
14 3 0.306338 0.303737 0.309408
15 2 0.307859 0.312681 0.311522
16 3 0.31078 0.314078 0.320656
17 2 0.31304 0.32295 0.3227
18 3 0.316534 0.324129 0.33145
19 2 0.32132 0.332352 0.332188
20 2 0.326797 0.333146 0.340061
21 3 0.332683 0.340387 0.339612
22 3 0.338076 0.34019 0.347634
23 2 0.344667 0.347634 0.349272
24 1 0.348959 0.346596 0.357878
25 1 0.355244 0.353828 0.359048
26 2 0.360121 0.353543 0.36731
27 1 0.367048 0.360503 0.367492
28 3 0.371932 0.360938 0.375529
29 3 0.379435 0.366955 0.374579
30 2 0.383515 0.367829 0.383665
31 3 0.386467 0.377183 0.384696
32 3 0.38949 0.379329 0.3937
33 2 0.393358 0.388002 0.393537
34 2 0.397652 0.389985 0.402076
35 1 0.401772 0.398813 0.401611
36 1 0.406045 0.400153 0.409831
37 1 0.40961 0.408872 0.410899
38 3 0.412278 0.410198 0.42
39 3 0.417747 0.418214 0.420099
40 1 0.419846 0.420418 0.42907
41 1 0.426506 0.427512 0.430599
42 1 0.430032 0.427223 0.439229
43 2 0.436432 0.434524 0.439837
44 3 0.441654 0.433956 0.448263
45 1 0.448021 0.44148 0.448513
46 1 0.451668 0.441435 0.457416
47 3 0.458015 0.448696 0.457424
48 1 0.460265 0.450539 0.466372
49 3 0.466115 0.458174 0.466853
50 3 0.465709 0.462104 0.475539
51 2 0.472709 0.468524 0.476428
52 3 0.472519 0.473464 0.484912
53 2 0.481089 0.477783 0.486179
54 3 0.4818 0.484459 0.493343
55 2 0.490075 0.489662 0.491444
56 1 0.490953 0.496439 0.498659
57 1 0.499543 0.501389 0.497563
58 2 0.500412 0.508904 0.503824
59 2 0.509497 0.512505 0.504163
60 3 0.510535 0.519285 0.511076
61 3 0.519546 0.522748 0.511354
62 3 0.520556 0.529632 0.518118
63 2 0.529207 0.533732 0.518096
64 3 0.529646 0.540746 0.524962
65 1 0.538811 0.543257 0.52691
66 3 0.539297 0.548771 0.534932
67 1 0.547934 0.548668 0.539262
68 3 0.548131 0.55638 0.544953
69 1 0.555793 0.555558 0.550762
70 2 0.556561 0.562963 0.55739
71 1 0.565102 0.562838 0.561835
72 1 0.564877 0.56887 0.569938
73 2 0.57424 0.570252 0.573159
74 2 0.5745 0.576351 0.580691
75 2 0.583939 0.577293 0.583095
76 3 0.583718 0.584188 0.589749
77 1 0.593195 0.585233 0.592206
78 3 0.594137 0.591277 0.599636
79 1 0.603495 0.59378 0.601647
80 2 0.603107 0.601806 0.606539
81 1 0.611712 0.603643 0.610163
82 1 0.61115 0.612553 0.614184
83 3 0.619292 0.614137 0.618623
84 1 0.61919 0.622666 0.62336
85 3 0.627594 0.623473 0.628087
86 1 0.627027 0.630994 0.634524
87 1 0.634849 0.631452 0.64003
88 3 0.634064 0.638519 0.646327
89 1 0.64313 0.64108 0.648683
90 3 0.642317 0.649293 0.653371
91 1 0.651067 0.652523 0.656212
92 3 0.649481 0.659845 0.662214
93 2 0.65831 0.662999 0.665736
94 2 0.657207 0.669726 0.672448
95 3 0.66631 0.671205 0.675813
96 3 0.667028 0.678891 0.68158
97 2 0.675517 0.679121 0.685464
98 1 0.678391 0.688039 0.687654
99 3 0.68716 0.687639 0.6916
100 1 0.690068 0.696096 0.694998
ITEM: TIMESTEP
600
ITEM: NUMBER OF ATOMS
100
ITEM: BOX BOUNDS ff ff ff
0.0000000000000000e+00 1.5850000000000000e+02
0.0000000000000000e+00 1.5850000000000000e+02
0.0000000000000000e+00 1.5850000000000000e+02
ITEM: ATOMS id type xs ys zs
1 2 0.235459 0.268966 0.267001
2 3 0.243257 0.263943 0.269136
3 1 0.250805 0.268444 0.265997
4 1 0.258432 0.264858 0.270647
5 2 0.266264 0.270122 0.268326
6 1 0.272417 0.269066 0.27551
7 1 0.279828 0.274821 0.273877
8 3 0.285295 0.275954 0.281528
9 1 0.291511 0.283041 0.279729
10 2 0.297134 0.284301 0.287441
11 3 0.298573 0.293595 0.289058
12 3 0.304094 0.294544 0.297038
13 2 0.303049 0.30355 0.300235
14 3 0.308824 0.304401 0.308415
15 2 0.307312 0.312983 0.311914
16 3 0.312305 0.31445 0.319879
17 2 0.311539 0.323944 0.322802
18 3 0.318635 0.324656 0.330044
19 2 0.319715 0.333497 0.33323
20 2 0.326303 0.333246 0.340279
21 3 0.329455 0.342274 0.343111
22 3 0.337178 0.340395 0.348886
23 2 0.342489 0.348461 0.350886
24 1 0.349376 0.345821 0.357085
25 1 0.355317 0.352609 0.359686
26 2 0.361801 0.350243 0.36596
27 1 0.366529 0.357931 0.368189
28 3 0.372604 0.356419 0.375542
29 3 0.376707 0.364864 0.376595
30 2 0.382719 0.366033 0.384743
31 3 0.387387 0.374961 0.384326
32 3 0.392621 0.37615 0.39252
33 2 0.396016 0.385187 0.392961
34 2 0.398296 0.38834 0.402027
35 1 0.402656 0.397106 0.402088
36 1 0.40589 0.398848 0.410846
37 1 0.408812 0.407576 0.411637
38 3 0.41356 0.409443 0.420091
39 3 0.416788 0.418307 0.421312
40 1 0.422225 0.418575 0.429428
41 1 0.425606 0.426951 0.431514
42 1 0.430919 0.426847 0.439523
43 2 0.436606 0.434862 0.440735
44 3 0.442333 0.434025 0.448716
45 1 0.448961 0.441485 0.449466
46 1 0.453472 0.440576 0.458184
47 3 0.459912 0.448033 0.459466
48 1 0.459787 0.451214 0.468575
49 3 0.467332 0.457197 0.469613
50 3 0.467644 0.461339 0.478484
51 2 0.475327 0.467544 0.47906
52 3 0.475817 0.472729 0.487286
53 2 0.480985 0.480562 0.485437
54 3 0.48346 0.485078 0.493532
55 2 0.489739 0.492325 0.491703
56 1 0.491011 0.497931 0.49949
57 1 0.498902 0.503187 0.498081
58 2 0.501361 0.508799 0.505378
59 2 0.50833 0.514785 0.502989
60 3 0.510308 0.521011 0.510253
61 3 0.518633 0.525743 0.509128
62 3 0.519694 0.53176 0.516778
63 2 0.52882 0.534189 0.518939
64 3 0.529158 0.541177 0.525466
65 1 0.53816 0.543054 0.527934
66 3 0.537732 0.549206 0.535421
67 1 0.546336 0.552798 0.536828
68 3 0.546562 0.557264 0.545542
69 1 0.555231 0.559486 0.548467
70 2 0.555593 0.563923 0.557023
71 1 0.564586 0.564277 0.560415
72 1 0.56477 0.569151 0.56852
73 2 0.573604 0.568576 0.572315
74 2 0.574802 0.574681 0.579387
75 2 0.583884 0.575604 0.581865
76 3 0.584553 0.581955 0.588668
77 1 0.593551 0.585444 0.59104
78 3 0.592856 0.59256 0.597696
79 1 0.601888 0.594751 0.599971
80 2 0.601498 0.602038 0.606057
81 1 0.610321 0.605094 0.608701
82 1 0.610214 0.612359 0.61443
83 3 0.619156 0.614264 0.617003
84 1 0.619049 0.621082 0.623889
85 3 0.627285 0.621173 0.628749
86 1 0.627127 0.629159 0.634249
87 1 0.634843 0.630374 0.639902
88 3 0.633321 0.63875 0.644412
89 1 0.641874 0.641091 0.648586
90 3 0.640756 0.649212 0.653349
91 1 0.649196 0.651934 0.657338
92 3 0.648677 0.660233 0.661694
93 2 0.657126 0.660968 0.666512
94 2 0.657849 0.668424 0.67275
95 3 0.666514 0.668667 0.676416
96 3 0.667147 0.677243 0.680592
97 2 0.676125 0.677223 0.684362
98 1 0.677502 0.686029 0.687982
99 3 0.687106 0.686738 0.689339
100 1 0.690428 0.696062 0.689629
ITEM: TIMESTEP
700
ITEM: NUMBER OF ATOMS
100
ITEM: BOX BOUNDS ff ff ff
0.0000000000000000e+00 1.5850000000000000e+02
0.0000000000000000e+00 1.5850000000000000e+02
0.0000000000000000e+00 1.5850000000000000e+02
ITEM: ATOMS id type xs ys zs
1 2 0.235643 0.271689 0.270238
2 3 0.243862 0.268213 0.273385
3 1 0.251364 0.272126 0.269151
4 1 0.259108 0.267556 0.273238
5 2 0.267037 0.272647 0.270289
6 1 0.275003 0.270185 0.275294
7 1 0.281115 0.277578 0.274031
8 3 0.289156 0.276705 0.279057
9 1 0.293228 0.285229 0.28039
10 2 0.298731 0.285612 0.288271
11 3 0.300356 0.29465 0.289892
12 3 0.305111 0.29643 0.298023
13 2 0.304393 0.305717 0.300661
14 3 0.308653 0.306785 0.308697
15 2 0.308537 0.316175 0.311377
16 3 0.314489 0.316104 0.319106
17 2 0.313764 0.324932 0.322722
18 3 0.319493 0.324871 0.33035
19 2 0.31994 0.334289 0.334238
20 2 0.326816 0.333385 0.340962
21 3 0.329361 0.341371 0.345079
22 3 0.33658 0.339338 0.351295
23 2 0.341346 0.346738 0.354423
24 1 0.349729 0.344028 0.358785
25 1 0.354013 0.35232 0.360097
26 2 0.36145 0.350499 0.365786
27 1 0.366876 0.357963 0.367888
28 3 0.373397 0.35631 0.374918
29 3 0.376963 0.364734 0.377332
30 2 0.382554 0.364795 0.385126
31 3 0.387194 0.372978 0.386016
32 3 0.39357 0.374173 0.393281
33 2 0.395754 0.383778 0.394423
34 2 0.402484 0.385577 0.401325
35 1 0.403147 0.39497 0.403297
36 1 0.407028 0.397037 0.412111
37 1 0.410311 0.406352 0.412553
38 3 0.413812 0.407767 0.4215
39 3 0.417762 0.416266 0.422411
40 1 0.422559 0.417089 0.430892
41 1 0.428592 0.424754 0.431105
42 1 0.433403 0.425847 0.439714
43 2 0.439317 0.433235 0.440511
44 3 0.441462 0.434517 0.449888
45 1 0.448135 0.441514 0.451572
46 1 0.451211 0.442079 0.460801
47 3 0.457509 0.449206 0.461934
48 1 0.462032 0.449866 0.470701
49 3 0.467894 0.457321 0.470551
50 3 0.471358 0.460054 0.479345
51 2 0.475594 0.468894 0.478505
52 3 0.477904 0.472665 0.48717
53 2 0.483388 0.480574 0.485647
54 3 0.484067 0.486053 0.493283
55 2 0.490674 0.492872 0.49203
56 1 0.492017 0.498452 0.499857
57 1 0.49824 0.50485 0.497051
58 2 0.499586 0.510498 0.504365
59 2 0.507843 0.515267 0.50283
60 3 0.50925 0.52196 0.509888
61 3 0.517561 0.526749 0.509838
62 3 0.517921 0.532305 0.51783
63 2 0.526206 0.537291 0.517505
64 3 0.528475 0.539558 0.526569
65 1 0.536522 0.544755 0.526755
66 3 0.536047 0.549869 0.535042
67 1 0.544827 0.554182 0.536865
68 3 0.544965 0.559088 0.545325
69 1 0.554312 0.561676 0.546731
70 2 0.555123 0.563987 0.555774
71 1 0.564665 0.565097 0.557531
72 1 0.564991 0.567774 0.566808
73 2 0.574053 0.569472 0.569424
74 2 0.574232 0.572831 0.578277
75 2 0.582939 0.575594 0.580578
76 3 0.583187 0.581945 0.588218
77 1 0.592036 0.584244 0.59054
78 3 0.591417 0.592649 0.595527
79 1 0.600956 0.595417 0.596959
80 2 0.601158 0.602413 0.603913
81 1 0.609879 0.605631 0.60564
82 1 0.609317 0.610767 0.613916