ITEM: TIMESTEP
0
ITEM: NUMBER OF ATOMS
100
ITEM: BOX BOUNDS ff ff ff
0.0000000000000000e+00 1.5850000000000000e+02
0.0000000000000000e+00 1.5850000000000000e+02
0.0000000000000000e+00 1.5850000000000000e+02
ITEM: ATOMS id type xs ys zs
1 2 0.277803 0.298647 0.294353
3 1 0.285074 0.299247 0.308957
2 3 0.283314 0.304215 0.300078
4 1 0.289987 0.303983 0.315738
5 2 0.28695 0.312621 0.317967
6 1 0.290714 0.316174 0.325698
7 1 0.290305 0.325592 0.324572
8 3 0.294139 0.329384 0.332614
9 1 0.287613 0.330976 0.339161
12 3 0.30516 0.337422 0.342371
13 2 0.312769 0.343652 0.341432
11 3 0.297661 0.341565 0.346482
10 2 0.291304 0.33417 0.347653
18 3 0.321558 0.360694 0.373407
14 3 0.313406 0.348 0.350813
15 2 0.321773 0.352826 0.350817
16 3 0.321611 0.359045 0.358062
17 2 0.322007 0.354246 0.36645
19 2 0.323418 0.35621 0.381708
20 2 0.318854 0.361238 0.388334
21 3 0.321541 0.370813 0.388582
22 3 0.33039 0.372015 0.392494
23 2 0.330477 0.369254 0.401929
24 1 0.337472 0.374759 0.404566
25 1 0.33597 0.384619 0.40345
26 2 0.343442 0.388538 0.406604
27 1 0.351213 0.389203 0.401503
29 3 0.367289 0.392023 0.402908
28 3 0.35893 0.389867 0.407496
31 3 0.371794 0.406313 0.406307
30 2 0.37338 0.396698 0.408528
33 2 0.385523 0.409486 0.413763
32 3 0.376489 0.41096 0.413942
34 2 0.388284 0.414466 0.421412
35 1 0.398211 0.416562 0.419917
36 1 0.400136 0.424876 0.423253
37 1 0.408984 0.424218 0.42559
38 3 0.412817 0.43213 0.427818
39 3 0.422179 0.431664 0.430746
40 1 0.423239 0.429787 0.440071
41 1 0.433086 0.429986 0.441669
42 1 0.434817 0.429192 0.450411
43 2 0.443755 0.433154 0.453972
44 3 0.445006 0.442176 0.452357
45 1 0.454626 0.444152 0.454083
46 1 0.454108 0.453836 0.455996
47 3 0.462544 0.457926 0.452924
48 1 0.463583 0.466695 0.455744
49 3 0.467647 0.466024 0.464684
50 3 0.469208 0.475439 0.468721
51 2 0.476548 0.475687 0.473762
52 3 0.475809 0.483992 0.478289
53 2 0.485036 0.484788 0.481533
54 3 0.486361 0.493612 0.485033
55 2 0.49513 0.495087 0.489394
56 1 0.49658 0.503761 0.49201
57 1 0.50291 0.503201 0.499752
58 2 0.506434 0.511613 0.504159
59 2 0.513909 0.51531 0.498858
61 3 0.516096 0.52893 0.507924
60 3 0.519592 0.520357 0.505348
62 3 0.520039 0.531193 0.515308
63 2 0.528002 0.536823 0.513208
65 1 0.536571 0.54983 0.515546
64 3 0.530193 0.544027 0.519416
66 3 0.540318 0.554792 0.523179
67 1 0.548823 0.557376 0.520508
68 3 0.555353 0.557249 0.527984
69 1 0.563892 0.558162 0.523582
70 2 0.567185 0.567496 0.524391
72 1 0.578592 0.577838 0.527467
71 1 0.575236 0.569412 0.5292
74 2 0.58451 0.584371 0.539184
73 2 0.587011 0.578471 0.531644
75 2 0.592177 0.584174 0.54504
76 3 0.592041 0.59064 0.551281
79 1 0.585704 0.583823 0.574402
80 2 0.592586 0.580638 0.581331
78 3 0.591121 0.584261 0.566424
77 1 0.586226 0.589257 0.55928
81 1 0.586702 0.580248 0.588245
82 1 0.590808 0.579976 0.598172
83 3 0.590215 0.58957 0.601029
84 1 0.596369 0.591552 0.608227
85 3 0.603965 0.597021 0.60725
86 1 0.607727 0.600275 0.615205
87 1 0.614625 0.605943 0.612897
89 1 0.627164 0.613536 0.619357
88 3 0.619346 0.60771 0.621499
90 3 0.631103 0.615776 0.628116
91 1 0.627664 0.623353 0.631751
93 2 0.627891 0.632643 0.643653
95 3 0.640534 0.635242 0.653078
92 3 0.631993 0.624773 0.640325
94 2 0.630723 0.634071 0.652233
96 3 0.643555 0.635087 0.661982
97 2 0.65219 0.63944 0.66216
98 1 0.651266 0.647664 0.665072
99 3 0.648565 0.654101 0.658134
100 1 0.645703 0.662385 0.663253
ITEM: TIMESTEP
100
ITEM: NUMBER OF ATOMS
100
ITEM: BOX BOUNDS ff ff ff
0.0000000000000000e+00 1.5850000000000000e+02
0.0000000000000000e+00 1.5850000000000000e+02
0.0000000000000000e+00 1.5850000000000000e+02
ITEM: ATOMS id type xs ys zs
1 2 0.283352 0.298015 0.293339
3 1 0.278533 0.302639 0.30762
2 3 0.286224 0.300335 0.302258
4 1 0.281379 0.305047 0.316523
5 2 0.28693 0.312936 0.316104
6 1 0.289456 0.315615 0.325026
7 1 0.295264 0.323314 0.324529
8 3 0.297653 0.326159 0.333433
9 1 0.289755 0.329302 0.338004
12 3 0.306778 0.336894 0.342792
13 2 0.312621 0.344518 0.341842
11 3 0.298191 0.339909 0.346009
10 2 0.292146 0.332422 0.346814
18 3 0.319043 0.360779 0.373479
14 3 0.313322 0.348973 0.35037
15 2 0.318959 0.35678 0.349656
16 3 0.3182 0.361782 0.357876
17 2 0.32197 0.356758 0.36521
19 2 0.323232 0.356499 0.381049
20 2 0.318844 0.359624 0.389056
21 3 0.319361 0.369255 0.389418
22 3 0.328273 0.372123 0.391768
23 2 0.329919 0.369862 0.401003
24 1 0.337981 0.374206 0.404048
25 1 0.336819 0.383739 0.403079
26 2 0.34373 0.388537 0.407807
27 1 0.35246 0.38648 0.404242
29 3 0.367911 0.389907 0.40617
28 3 0.358882 0.391994 0.408879
31 3 0.372388 0.404882 0.40717
30 2 0.373842 0.39602 0.410706
33 2 0.385768 0.410725 0.413735
32 3 0.376164 0.411527 0.413059
34 2 0.388844 0.418023 0.419259
35 1 0.398424 0.417888 0.420454
36 1 0.400789 0.42587 0.425347
37 1 0.4103 0.426485 0.426885
38 3 0.412039 0.435219 0.430624
39 3 0.421457 0.436581 0.432242
40 1 0.424331 0.431631 0.440011
41 1 0.433506 0.433993 0.441877
42 1 0.436558 0.429753 0.449994
43 2 0.445716 0.432387 0.451574
44 3 0.446141 0.441822 0.453637
45 1 0.455375 0.444651 0.453416
46 1 0.456206 0.454053 0.455502
47 3 0.465087 0.456882 0.452948
48 1 0.466701 0.466198 0.454969
49 3 0.468861 0.467342 0.464315
50 3 0.472263 0.476282 0.46565
51 2 0.475774 0.477205 0.474603
52 3 0.480175 0.485772 0.475487
53 2 0.484346 0.486388 0.484183
54 3 0.489194 0.494708 0.485038
55 2 0.493538 0.494929 0.493669
56 1 0.498267 0.503263 0.494972
57 1 0.502171 0.503137 0.50381
58 2 0.506436 0.511516 0.506032
59 2 0.514603 0.512744 0.501037
61 3 0.514443 0.528433 0.503574
60 3 0.519337 0.520208 0.504958
62 3 0.517366 0.535133 0.509896
63 2 0.526708 0.537273 0.508717
65 1 0.538642 0.545558 0.515488
64 3 0.529265 0.543248 0.515872
66 3 0.540852 0.55047 0.523514
67 1 0.55025 0.552704 0.523825
68 3 0.552161 0.556162 0.532641
69 1 0.561507 0.558386 0.53365
70 2 0.563699 0.566381 0.528699
72 1 0.575148 0.577192 0.526591
71 1 0.572681 0.569012 0.531077
74 2 0.583619 0.583039 0.538651
73 2 0.583952 0.579833 0.529537
75 2 0.592647 0.584604 0.54169
76 3 0.592772 0.588822 0.550386
79 1 0.586073 0.581975 0.572748
80 2 0.590321 0.584058 0.581171
78 3 0.590772 0.586697 0.565763
77 1 0.588485 0.583269 0.557027
81 1 0.585219 0.580531 0.588567
82 1 0.590518 0.581182 0.596618
83 3 0.593534 0.590275 0.597782
84 1 0.599197 0.590852 0.60558
85 3 0.603557 0.599467 0.605665
86 1 0.609391 0.60017 0.613333
87 1 0.614755 0.608161 0.612484
89 1 0.626479 0.616588 0.618712
88 3 0.620304 0.609334 0.620301
90 3 0.631759 0.618239 0.626633
91 1 0.626369 0.622719 0.633284
93 2 0.626379 0.629101 0.647728
95 3 0.639259 0.634645 0.655205
92 3 0.631606 0.624166 0.641277
94 2 0.631116 0.629533 0.656134
96 3 0.644099 0.634169 0.663554
97 2 0.652377 0.63912 0.663028
98 1 0.650616 0.648616 0.663037
99 3 0.645812 0.651083 0.655045
100 1 0.644151 0.660589 0.655138
ITEM: TIMESTEP
200
ITEM: NUMBER OF ATOMS
100
ITEM: BOX BOUNDS ff ff ff
0.0000000000000000e+00 1.5850000000000000e+02
0.0000000000000000e+00 1.5850000000000000e+02
0.0000000000000000e+00 1.5850000000000000e+02
ITEM: ATOMS id type xs ys zs
1 2 0.284905 0.295469 0.293249
3 1 0.279084 0.302175 0.306291
2 3 0.286884 0.298104 0.302325
4 1 0.281141 0.304995 0.315291
5 2 0.28793 0.311852 0.315041
6 1 0.289831 0.314882 0.324012
7 1 0.29656 0.32181 0.323733
8 3 0.298191 0.325094 0.332668
9 1 0.29012 0.329167 0.336042
12 3 0.306699 0.336868 0.342699
13 2 0.312662 0.344458 0.342342
11 3 0.297782 0.340015 0.344653
10 2 0.291578 0.33262 0.344941
18 3 0.318275 0.361901 0.374191
14 3 0.312501 0.349015 0.350852
15 2 0.317989 0.356943 0.350439
16 3 0.316843 0.362008 0.358577
17 2 0.320719 0.357306 0.366061
19 2 0.322615 0.357852 0.381809
20 2 0.318885 0.361685 0.389848
21 3 0.320466 0.371209 0.389997
22 3 0.329641 0.373137 0.392295
23 2 0.331207 0.370362 0.401409
24 1 0.339386 0.374272 0.404725
25 1 0.338372 0.383876 0.404614
26 2 0.345254 0.388177 0.409852
27 1 0.35404 0.386777 0.406115
29 3 0.369326 0.390994 0.408219
28 3 0.360235 0.392115 0.411263
31 3 0.372355 0.406176 0.410388
30 2 0.374824 0.397255 0.413106
33 2 0.385471 0.413076 0.416459
32 3 0.375815 0.412779 0.416537
34 2 0.388198 0.420438 0.422083
35 1 0.397816 0.421246 0.422466
36 1 0.399944 0.429287 0.42739
37 1 0.409495 0.430512 0.428108
38 3 0.411167 0.439185 0.432024
39 3 0.420646 0.440763 0.432953
40 1 0.42423 0.435391 0.440127
41 1 0.43366 0.437234 0.441066
42 1 0.437224 0.432372 0.448602
43 2 0.446749 0.433839 0.449161
44 3 0.448646 0.443094 0.451237
45 1 0.458209 0.444397 0.450921
46 1 0.460525 0.453576 0.452842
47 3 0.469977 0.454687 0.451188
48 1 0.472773 0.463808 0.452747
49 3 0.473177 0.465681 0.462206
50 3 0.477071 0.47443 0.463468
51 2 0.478548 0.476064 0.472861
52 3 0.483221 0.48445 0.474008
53 2 0.48515 0.485769 0.483376
54 3 0.490173 0.493909 0.484675
55 2 0.491973 0.49495 0.494106
56 1 0.496963 0.503043 0.495805
57 1 0.498141 0.503907 0.505352
58 2 0.502793 0.512068 0.507613
59 2 0.512089 0.511577 0.505016
61 3 0.513749 0.527307 0.504015
60 3 0.516648 0.5193 0.508615
62 3 0.516027 0.535066 0.50931
63 2 0.525562 0.535803 0.510604
65 1 0.536523 0.544206 0.518644
64 3 0.52712 0.543081 0.516766
66 3 0.5374 0.551034 0.525428
67 1 0.54667 0.552604 0.527626
68 3 0.547039 0.558858 0.534977
69 1 0.556201 0.560706 0.537381
70 2 0.560439 0.56596 0.530482
72 1 0.573869 0.573214 0.526361
71 1 0.569591 0.567681 0.533011
74 2 0.584094 0.579237 0.536871
73 2 0.583191 0.574275 0.528633
75 2 0.593451 0.579548 0.539254
76 3 0.594824 0.584668 0.547334
79 1 0.588531 0.581018 0.570538
80 2 0.592853 0.583732 0.578735
78 3 0.593419 0.584563 0.562999
77 1 0.590292 0.580527 0.554791
81 1 0.587525 0.581006 0.586319
82 1 0.592581 0.58227 0.594467
83 3 0.595009 0.591559 0.595502
84 1 0.600493 0.592538 0.603395
85 3 0.603787 0.601595 0.603965
86 1 0.609678 0.602447 0.611565
87 1 0.613499 0.611318 0.611684
89 1 0.623643 0.620939 0.618954
88 3 0.619528 0.612209 0.619176
90 3 0.629849 0.621856 0.626302
91 1 0.625061 0.622411 0.634679
93 2 0.626699 0.624489 0.650251
95 3 0.639162 0.632269 0.655971
92 3 0.631395 0.623115 0.641928
94 2 0.633055 0.624951 0.657515
96 3 0.64534 0.632974 0.663356
97 2 0.651966 0.639703 0.661387
98 1 0.647714 0.648288 0.660269
99 3 0.642065 0.6481 0.652452
100 1 0.637962 0.656749 0.65123
ITEM: TIMESTEP
300
ITEM: NUMBER OF ATOMS
100
ITEM: BOX BOUNDS ff ff ff
0.0000000000000000e+00 1.5850000000000000e+02
0.0000000000000000e+00 1.5850000000000000e+02
0.0000000000000000e+00 1.5850000000000000e+02
ITEM: ATOMS id type xs ys zs
1 2 0.288931 0.293895 0.294318
3 1 0.281952 0.30165 0.306139
2 3 0.290052 0.297231 0.303306
4 1 0.283072 0.30495 0.315141
5 2 0.289901 0.311772 0.315254
6 1 0.291061 0.315024 0.32427
7 1 0.297814 0.321923 0.324374
8 3 0.298832 0.325317 0.333355
9 1 0.290525 0.329346 0.336165
12 3 0.306482 0.337636 0.343108
13 2 0.31224 0.345379 0.342745
11 3 0.297456 0.34056 0.344891
10 2 0.291443 0.333007 0.345052
18 3 0.319488 0.362509 0.37452
14 3 0.31211 0.349863 0.351295
15 2 0.317191 0.358057 0.350759
16 3 0.316456 0.362824 0.359125
17 2 0.321459 0.358315 0.366047
19 2 0.324927 0.358727 0.381549
20 2 0.321561 0.361839 0.390049
21 3 0.322279 0.371452 0.390641
22 3 0.331255 0.374132 0.392985
23 2 0.333136 0.37114 0.401972
24 1 0.340967 0.375586 0.405474
25 1 0.339123 0.38505 0.406006
26 2 0.345554 0.389547 0.411644
27 1 0.354461 0.38926 0.407924
29 3 0.369308 0.394539 0.410458
28 3 0.360192 0.394545 0.413635
31 3 0.371287 0.409487 0.414765
30 2 0.374478 0.400469 0.416068
33 2 0.384711 0.416416 0.419935
32 3 0.375182 0.415516 0.421226
34 2 0.387894 0.423355 0.425857
35 1 0.397429 0.424596 0.424947
36 1 0.40004 0.432296 0.430167
37 1 0.409577 0.433736 0.429613
38 3 0.411718 0.442113 0.433928
39 3 0.421236 0.443734 0.433696
40 1 0.425756 0.437816 0.439843
41 1 0.435264 0.43952 0.439593
42 1 0.439701 0.433957 0.446123
43 2 0.449278 0.435049 0.445468
44 3 0.451929 0.443963 0.448093
45 1 0.461513 0.444729 0.447133
46 1 0.464568 0.453528 0.449705
47 3 0.474081 0.454058 0.4481
48 1 0.477493 0.46282 0.45032
49 3 0.477393 0.464179 0.45988
50 3 0.481486 0.472695 0.461882
51 2 0.481801 0.474047 0.471439
52 3 0.486135 0.482462 0.473377
53 2 0.486464 0.483815 0.482934
54 3 0.49081 0.492208 0.484941
55 2 0.49084 0.493529 0.494508
56 1 0.495014 0.501945 0.496777
57 1 0.494384 0.503198 0.506333
58 2 0.498181 0.511664 0.509028
59 2 0.50778 0.511574 0.507983
61 3 0.508844 0.527376 0.506928
60 3 0.511418 0.519571 0.512011
62 3 0.511094 0.535367 0.511868
63 2 0.520637 0.536002 0.513194
65 1 0.531933 0.544515 0.520434
64 3 0.522462 0.543723 0.518706
66 3 0.53342 0.551834 0.526567
67 1 0.542825 0.552647 0.528628
68 3 0.544005 0.559444 0.535394
69 1 0.553327 0.560191 0.537818
70 2 0.558355 0.564162 0.530595
72 1 0.572724 0.568767 0.525944
71 1 0.567692 0.564576 0.533038
74 2 0.584135 0.573966 0.535707
73 2 0.582153 0.568467 0.528017
75 2 0.59354 0.573139 0.537739
76 3 0.595953 0.578751 0.545221
79 1 0.589728 0.578232 0.568703
80 2 0.594156 0.581759 0.576526
78 3 0.594728 0.580651 0.560807
77 1 0.5912 0.575952 0.553144
81 1 0.588933 0.579721 0.584385
82 1 0.594023 0.581811 0.59232
83 3 0.595926 0.591264 0.592781
84 1 0.601354 0.5929 0.600598
85 3 0.603739 0.602236 0.601174
86 1 0.609569 0.603474 0.608771
87 1 0.612367 0.612694 0.609357
89 1 0.621783 0.622772 0.61703
88 3 0.61864 0.613653 0.616637
90 3 0.628512 0.623611 0.623907
91 1 0.624544 0.622496 0.632638
93 2 0.627541 0.622648 0.64816
95 3 0.639052 0.631602 0.65425
92 3 0.63145 0.623215 0.639352
94 2 0.634515 0.623098 0.654826
96 3 0.645906 0.632049 0.661034
97 2 0.650643 0.640429 0.660312
98 1 0.644559 0.647726 0.662008
99 3 0.637861 0.647971 0.655062
100 1 0.63175 0.655253 0.656729
ITEM: TIMESTEP
400
ITEM: NUMBER OF ATOMS
100
ITEM: BOX BOUNDS ff ff ff
0.0000000000000000e+00 1.5850000000000000e+02
0.0000000000000000e+00 1.5850000000000000e+02
0.0000000000000000e+00 1.5850000000000000e+02
ITEM: ATOMS id type xs ys zs
1 2 0.290846 0.295347 0.295163
3 1 0.284275 0.301458 0.308124
2 3 0.292509 0.29829 0.304205
4 1 0.285972 0.304597 0.317097
5 2 0.291808 0.312285 0.316765
6 1 0.293459 0.315518 0.325715
7 1 0.299284 0.323209 0.325332
8 3 0.300789 0.326595 0.334249
9 1 0.292443 0.329792 0.337888
12 3 0.308289 0.339134 0.343857
13 2 0.313482 0.347264 0.343394
11 3 0.299222 0.341337 0.346334
10 2 0.293819 0.333348 0.346757
18 3 0.320276 0.363976 0.375421
14 3 0.313523 0.351519 0.352061
15 2 0.31824 0.359932 0.351566
16 3 0.317385 0.364542 0.36001
17 2 0.322464 0.360033 0.36688
19 2 0.325728 0.360174 0.38242
20 2 0.322162 0.362939 0.390952
21 3 0.322496 0.372545 0.391785
22 3 0.331421 0.375523 0.39395
23 2 0.333732 0.372278 0.402741
24 1 0.341579 0.37681 0.406086
25 1 0.339503 0.386187 0.407079
26 2 0.346129 0.390653 0.412506
27 1 0.354801 0.390765 0.408263
29 3 0.369624 0.396337 0.410195
28 3 0.360721 0.39591 0.413901
31 3 0.371417 0.411039 0.415309
30 2 0.374952 0.402071 0.415851
33 2 0.384935 0.417865 0.42028
32 3 0.375486 0.416757 0.421945
34 2 0.388376 0.424314 0.426596
35 1 0.397859 0.425653 0.425359
36 1 0.400741 0.432746 0.431249
37 1 0.410235 0.434265 0.430353
38 3 0.412644 0.442006 0.435605
39 3 0.422119 0.443729 0.434922
40 1 0.427068 0.437023 0.439794
41 1 0.436511 0.438921 0.439068
42 1 0.441526 0.432681 0.444462
43 2 0.450968 0.434417 0.44344
44 3 0.453103 0.443214 0.446807
45 1 0.462508 0.444912 0.445429
46 1 0.464813 0.453767 0.448521
47 3 0.474148 0.455351 0.446619
48 1 0.476708 0.464271 0.449289
49 3 0.476562 0.465094 0.458905
50 3 0.479961 0.473799 0.461333
51 2 0.480297 0.474667 0.470941
52 3 0.484307 0.483147 0.473245
53 2 0.484758 0.484022 0.48285
54 3 0.48907 0.492339 0.485192
55 2 0.489267 0.49318 0.494806
56 1 0.493548 0.501462 0.497331
57 1 0.493209 0.502297 0.506943
58 2 0.497127 0.510637 0.509832
59 2 0.506675 0.510564 0.50841
61 3 0.507569 0.526346 0.507369
60 3 0.51043 0.51856 0.512322
62 3 0.509831 0.534347 0.512279
63 2 0.519392 0.535071 0.513414
65 1 0.530689 0.543599 0.520626
64 3 0.521222 0.542811 0.518891
66 3 0.532149 0.550963 0.52671
67 1 0.541516 0.551656 0.52895
68 3 0.542663 0.558548 0.535623
69 1 0.551957 0.559194 0.538142
70 2 0.557109 0.562693 0.530766
72 1 0.571559 0.566704 0.525952
71 1 0.566431 0.563001 0.533239
74 2 0.582958 0.572043 0.535607
73 2 0.580958 0.56632 0.528091
75 2 0.592393 0.571366 0.53752
76 3 0.594807 0.577037 0.544955
79 1 0.589374 0.576176 0.568623
80 2 0.594016 0.579786 0.576284
78 3 0.593989 0.578814 0.560563
77 1 0.590338 0.57408 0.552978
81 1 0.589155 0.577658 0.584352
82 1 0.594521 0.579992 0.592036
83 3 0.596328 0.589473 0.592128
84 1 0.602085 0.591482 0.599615
85 3 0.604263 0.600886 0.599676
86 1 0.610356 0.602674 0.606949
87 1 0.612746 0.612027 0.606996
89 1 0.621494 0.623006 0.614221
88 3 0.619059 0.613662 0.614116
90 3 0.628096 0.624519 0.621096
91 1 0.624207 0.622919 0.629783
93 2 0.627093 0.622382 0.645264
95 3 0.637794 0.631556 0.652463
92 3 0.631012 0.62387 0.636567
94 2 0.633963 0.622704 0.65204
96 3 0.644698 0.631703 0.659211
97 2 0.6487 0.64048 0.659616
98 1 0.642155 0.646907 0.662622
99 3 0.635092 0.647629 0.65608
100 1 0.628602 0.65412 0.659066
ITEM: TIMESTEP
500
ITEM: NUMBER OF ATOMS
100
ITEM: BOX BOUNDS ff ff ff
0.0000000000000000e+00 1.5850000000000000e+02
0.0000000000000000e+00 1.5850000000000000e+02
0.0000000000000000e+00 1.5850000000000000e+02
ITEM: ATOMS id type xs ys zs
1 2 0.300447 0.297844 0.29967
3 1 0.294599 0.302679 0.313487
2 3 0.302697 0.301099 0.308478
4 1 0.296818 0.306008 0.322272
5 2 0.301166 0.314591 0.32146
6 1 0.303116 0.318065 0.330255
7 1 0.307448 0.32665 0.329441
8 3 0.308978 0.330319 0.338236
9 1 0.30046 0.331844 0.342515
12 3 0.314461 0.344287 0.347207
13 2 0.317872 0.353296 0.346492
11 3 0.305351 0.344649 0.350385
10 2 0.301754 0.335731 0.351259
18 3 0.321737 0.369548 0.378697
14 3 0.317436 0.357484 0.355178
15 2 0.320652 0.366577 0.354686
16 3 0.319158 0.370797 0.363237
17 2 0.324602 0.366545 0.369981
19 2 0.32724 0.365552 0.385547
20 2 0.323196 0.367227 0.39415
21 3 0.322842 0.376716 0.395877
22 3 0.331642 0.380099 0.397957
23 2 0.3347 0.376003 0.406144
24 1 0.342466 0.380668 0.409481
25 1 0.339858 0.38969 0.411724
26 2 0.346818 0.394097 0.416761
27 1 0.354775 0.395322 0.411435
29 3 0.369407 0.401623 0.411961
28 3 0.361193 0.400133 0.41681
31 3 0.371496 0.415434 0.41908
30 2 0.375355 0.40671 0.417611
33 2 0.385462 0.421971 0.423025
32 3 0.37642 0.420184 0.425891
34 2 0.389862 0.427093 0.429926
35 1 0.398982 0.429056 0.427438
36 1 0.402892 0.434699 0.434233
37 1 0.412016 0.436928 0.431979
38 3 0.415368 0.443261 0.438459
39 3 0.424423 0.44583 0.436306
40 1 0.430473 0.438516 0.438069
41 1 0.439474 0.44129 0.435948
42 1 0.445703 0.434347 0.438443
43 2 0.454689 0.437091 0.436202
44 3 0.457027 0.445038 0.441167
45 1 0.466093 0.447599 0.439046
46 1 0.468345 0.45586 0.443519
47 3 0.477496 0.458188 0.441474
48 1 0.479699 0.46676 0.445342
49 3 0.47932 0.466296 0.45498
50 3 0.481779 0.474883 0.458656
51 2 0.481249 0.474613 0.468295
52 3 0.483961 0.48314 0.471932
53 2 0.483252 0.48296 0.481565
54 3 0.486201 0.491402 0.485226
55 2 0.485186 0.491257 0.494832
56 1 0.488196 0.499615 0.498641
57 1 0.48666 0.499474 0.508176
58 2 0.489652 0.507722 0.512224
59 2 0.499277 0.508345 0.511753
61 3 0.499381 0.524205 0.512206
60 3 0.502274 0.516126 0.516638
62 3 0.502068 0.531878 0.517415
63 2 0.511704 0.532303 0.517953
65 1 0.523914 0.540154 0.524233
64 3 0.514296 0.539891 0.523343
66 3 0.526441 0.547562 0.529905
67 1 0.536017 0.547623 0.5312
68 3 0.5384 0.55476 0.537261
69 1 0.547891 0.554552 0.539063
70 2 0.55285 0.556979 0.531142
72 1 0.567311 0.558945 0.525144
71 1 0.562309 0.556374 0.532991
74 2 0.579951 0.563632 0.533528
73 2 0.57675 0.557621 0.526679
75 2 0.589404 0.56211 0.53476
76 3 0.593001 0.568142 0.541391
79 1 0.590125 0.569434 0.565488
80 2 0.595434 0.573845 0.572237
78 3 0.593725 0.571456 0.556759
77 1 0.589201 0.566185 0.550049
81 1 0.59199 0.571656 0.580981
82 1 0.597953 0.57508 0.58776
83 3 0.598004 0.584726 0.58763
84 1 0.604293 0.587868 0.594243
85 3 0.604228 0.597514 0.594578
86 1 0.610748 0.600462 0.60106
87 1 0.610503 0.610079 0.601831
89 1 0.616806 0.622481 0.609285
88 3 0.617276 0.612919 0.608097
90 3 0.623746 0.625254 0.615398
91 1 0.622262 0.621129 0.623993
93 2 0.627886 0.619552 0.638648
95 3 0.634013 0.631736 0.646561
92 3 0.629254 0.623799 0.630088
94 2 0.634853 0.622297 0.644737
96 3 0.641096 0.634515 0.652504
97 2 0.640252 0.643947 0.654387
98 1 0.632195 0.645545 0.659466
99 3 0.624485 0.643292 0.654115
100 1 0.616459 0.644942 0.659218
ITEM: TIMESTEP
600
ITEM: NUMBER OF ATOMS
100
ITEM: BOX BOUNDS ff ff ff
0.0000000000000000e+00 1.5850000000000000e+02
0.0000000000000000e+00 1.5850000000000000e+02
0.0000000000000000e+00 1.5850000000000000e+02
ITEM: ATOMS id type xs ys zs
1 2 0.307468 0.297715 0.301539
3 1 0.300167 0.303175 0.314397
2 3 0.308757 0.301483 0.310333
4 1 0.301432 0.306956 0.323189
5 2 0.305682 0.315589 0.322419
6 1 0.306715 0.319444 0.331208
7 1 0.310898 0.328115 0.330492
8 3 0.311582 0.332063 0.339275
9 1 0.3027 0.333509 0.342763
12 3 0.316233 0.345912 0.348711
13 2 0.319755 0.354893 0.348302
11 3 0.306873 0.346326 0.351035
10 2 0.303169 0.337427 0.351573
18 3 0.322244 0.3716 0.380652
14 3 0.318726 0.359061 0.356948
15 2 0.32192 0.368167 0.35665
16 3 0.32003 0.372404 0.365115
17 2 0.325291 0.368316 0.372101
19 2 0.327565 0.367816 0.387763
20 2 0.323374 0.36989 0.396207
21 3 0.323261 0.379437 0.397621
22 3 0.332037 0.382589 0.40012
23 2 0.334423 0.378692 0.408623
24 1 0.34221 0.383094 0.412255
25 1 0.339949 0.392301 0.414072
26 2 0.34687 0.396525 0.419314
27 1 0.355144 0.397075 0.414371
29 3 0.370052 0.40255 0.415265
28 3 0.361593 0.401729 0.419846
31 3 0.372434 0.416613 0.421746
30 2 0.376025 0.407699 0.420836
33 2 0.386562 0.423205 0.424849
32 3 0.377593 0.421735 0.428101
34 2 0.391136 0.428992 0.431078
35 1 0.400147 0.430744 0.428092
36 1 0.404168 0.437182 0.434059
37 1 0.413206 0.439147 0.431297
38 3 0.416702 0.44619 0.4369
39 3 0.425773 0.448289 0.434351
40 1 0.431619 0.440982 0.436718
41 1 0.440695 0.443298 0.434387
42 1 0.446676 0.436291 0.437267
43 2 0.455752 0.438698 0.435027
44 3 0.458193 0.446762 0.439741
45 1 0.46734 0.449062 0.437684
46 1 0.469663 0.457323 0.442107
47 3 0.478905 0.459449 0.440304
48 1 0.481166 0.467873 0.444443
49 3 0.48022 0.467151 0.454023
50 3 0.482649 0.475547 0.458121
51 2 0.481406 0.474963 0.467675
52 3 0.484025 0.483303 0.471771
53 2 0.482525 0.48283 0.481294
54 3 0.485323 0.491096 0.485423
55 2 0.483548 0.490699 0.494903
56 1 0.486511 0.498859 0.499125
57 1 0.484465 0.498467 0.508549
58 2 0.487572 0.506493 0.512921
59 2 0.497216 0.506832 0.512626
61 3 0.497611 0.522634 0.512937
60 3 0.500305 0.51457 0.517501
62 3 0.500219 0.530289 0.518209
63 2 0.509833 0.530535 0.519053
65 1 0.521958 0.537979 0.525864
64 3 0.51237 0.537913 0.524742
66 3 0.524453 0.545083 0.531909
67 1 0.534021 0.544995 0.53319
68 3 0.536535 0.551873 0.539483
69 1 0.546099 0.551669 0.540788
70 2 0.550503 0.554156 0.532569
72 1 0.56436 0.556036 0.52539
71 1 0.560074 0.553507 0.53366
74 2 0.577619 0.56088 0.532628
73 2 0.573912 0.554818 0.526091
75 2 0.587193 0.55966 0.532877
76 3 0.591205 0.565668 0.539282
79 1 0.590573 0.566231 0.563551
80 2 0.596043 0.570969 0.569939
78 3 0.593163 0.568742 0.554599
77 1 0.588387 0.563307 0.548206
81 1 0.593648 0.568209 0.578873
82 1 0.599735 0.572159 0.585239
83 3 0.598634 0.581747 0.58544
84 1 0.60497 0.585474 0.591699
85 3 0.60379 0.595034 0.592332
86 1 0.610324 0.598609 0.598475
87 1 0.609006 0.608114 0.599509
89 1 0.614183 0.621028 0.606967
88 3 0.615691 0.611603 0.605537
90 3 0.621008 0.62451 0.612839
91 1 0.620425 0.620135 0.621424
93 2 0.626855 0.619064 0.635782
95 3 0.631616 0.631806 0.643746
92 3 0.627255 0.623625 0.627284
94 2 0.633648 0.622605 0.641654
96 3 0.638489 0.635383 0.649502
97 2 0.636414 0.644552 0.651696
98 1 0.62839 0.644851 0.657056
99 3 0.620905 0.641665 0.651859
100 1 0.612889 0.64196 0.657231
ITEM: TIMESTEP
700
ITEM: NUMBER OF ATOMS
100
ITEM: BOX BOUNDS ff ff ff
0.0000000000000000e+00 1.5850000000000000e+02
0.0000000000000000e+00 1.5850000000000000e+02
0.0000000000000000e+00 1.5850000000000000e+02
ITEM: ATOMS id type xs ys zs
1 2 0.31159 0.29769 0.302352
3 1 0.302334 0.304106 0.313387
2 3 0.311375 0.301529 0.311206
4 1 0.302117 0.307969 0.322229
5 2 0.307244 0.316147 0.322298
6 1 0.306953 0.32006 0.331119
7 1 0.312014 0.328279 0.331174
8 3 0.311588 0.332272 0.339953
9 1 0.302442 0.334648 0.341919
12 3 0.316023 0.345837 0.349417
13 2 0.320479 0.354401 0.349325
11 3 0.306537 0.347241 0.350532
10 2 0.301917 0.338762 0.350636
18 3 0.322276 0.371553 0.381603
14 3 0.31906 0.3588 0.357798
15 2 0.323099 0.367569 0.357682
16 3 0.321002 0.372103 0.365945
17 2 0.325532 0.367817 0.373317
19 2 0.327018 0.367706 0.389079
20 2 0.322574 0.37027 0.397252
21 3 0.322855 0.379849 0.398373
22 3 0.331712 0.382715 0.400933
23 2 0.33387 0.378912 0.409536
24 1 0.34171 0.383187 0.413203
25 1 0.339595 0.392442 0.414932
26 2 0.346618 0.396659 0.420039
27 1 0.354813 0.397159 0.414961
29 3 0.369691 0.402768 0.415533
28 3 0.361304 0.401974 0.420245
31 3 0.372021 0.417086 0.421475
30 2 0.375665 0.408164 0.420865
33 2 0.386137 0.42379 0.424369
32 3 0.377156 0.422446 0.427647
34 2 0.390705 0.429797 0.430392
35 1 0.399746 0.431364 0.427396
36 1 0.403813 0.437975 0.43314
37 1 0.412903 0.439689 0.430377
38 3 0.416478 0.446865 0.435755
39 3 0.425611 0.448727 0.433242
40 1 0.431325 0.441426 0.435933
41 1 0.440483 0.443557 0.433738
42 1 0.446298 0.436547 0.436937
43 2 0.45547 0.438762 0.434893
44 3 0.457944 0.446853 0.439549
45 1 0.467179 0.448964 0.437692
46 1 0.469556 0.457244 0.442056
47 3 0.478857 0.45921 0.440359
48 1 0.481213 0.467632 0.444452
49 3 0.480285 0.466977 0.454038
50 3 0.482768 0.475377 0.458098
51 2 0.481563 0.474834 0.467662
52 3 0.484176 0.48319 0.471738
53 2 0.482725 0.482713 0.481274
54 3 0.485532 0.490967 0.485428
55 2 0.483809 0.490504 0.494916
56 1 0.486776 0.498627 0.499218
57 1 0.484739 0.498119 0.508643
58 2 0.487783 0.506084 0.513179
59 2 0.497427 0.506506 0.512933
61 3 0.497619 0.522282 0.514292
60 3 0.500482 0.513957 0.518266
62 3 0.500367 0.529628 0.519916
63 2 0.510013 0.530042 0.520272
65 1 0.522354 0.537505 0.526685
64 3 0.512714 0.537183 0.526182
66 3 0.52504 0.544412 0.532877
67 1 0.534674 0.544607 0.533521
68 3 0.537359 0.55127 0.539979
69 1 0.546985 0.551319 0.540771
70 2 0.550917 0.55444 0.532525
72 1 0.564418 0.557308 0.524952
71 1 0.560544 0.554046 0.533172
74 2 0.577742 0.562048 0.532121
73 2 0.574027 0.556378 0.525242
75 2 0.587348 0.561075 0.532079
76 3 0.591327 0.566646 0.538887
79 1 0.590843 0.565516 0.563146
80 2 0.596189 0.570017 0.569804
78 3 0.593396 0.568604 0.554365
77 1 0.588653 0.563561 0.547635
81 1 0.593665 0.56694 0.578597
82 1 0.599507 0.570904 0.585178
83 3 0.598262 0.580474 0.58535
84 1 0.604396 0.584303 0.591741
85 3 0.603181 0.593867 0.592174
86 1 0.609558 0.597539 0.598423
87 1 0.608338 0.607082 0.599159
89 1 0.613653 0.620135 0.606308
88 3 0.614913 0.610621 0.605276
90 3 0.620382 0.623581 0.612312
91 1 0.619267 0.619569 0.621023
93 2 0.625036 0.618776 0.635679
95 3 0.630744 0.63144 0.643169
92 3 0.626096 0.622862 0.626998
94 2 0.631943 0.621989 0.64161
96 3 0.637757 0.634655 0.648972
97 2 0.636524 0.644084 0.650628
98 1 0.628409 0.645437 0.655676
99 3 0.62081 0.642712 0.650384
100 1 0.61271 0.644045 0.655462
ITEM: TIMESTEP
800
ITEM: NUMBER OF ATOMS
100
ITEM: BOX BOUNDS ff ff ff
0.0000000000000000e+00 1.5850000000000000e+02
0.0000000000000000e+00 1.5850000000000000e+02
0.0000000000000000e+00 1.5850000000000000e+02
ITEM: ATOMS id type xs ys zs
1 2 0.315696 0.297802 0.303366
3 1 0.305698 0.304524 0.313528
2 3 0.314875 0.301907 0.312063
4 1 0.304875 0.308633 0.322224
5 2 0.309961 0.316838 0.322421
6 1 0.309085 0.320959 0.331106
7 1 0.314125 0.329192 0.331309
8 3 0.313123 0.333339 0.33997
9 1 0.303874 0.335772 0.341272
12 3 0.316937 0.346745 0.349982
13 2 0.321463 0.355259 0.350479
11 3 0.307406 0.348227 0.350361
10 2 0.302714 0.339794 0.349972
18 3 0.32183 0.37164 0.383331
14 3 0.319506 0.359399 0.358976
15 2 0.323521 0.36817 0.359359
16 3 0.321029 0.37244 0.367651
17 2 0.325351 0.368055 0.375087
19 2 0.326458 0.367805 0.390884
20 2 0.321891 0.370405 0.398976
21 3 0.322073 0.379999 0.399977
22 3 0.33089 0.382983 0.402532
23 2 0.332982 0.379486 0.411283
24 1 0.340855 0.38383 0.414796
25 1 0.338874 0.393204 0.415986
26 2 0.345945 0.397611 0.420866
27 1 0.354156 0.397708 0.415793
29 3 0.369101 0.403163 0.416073
28 3 0.360689 0.402764 0.420788
31 3 0.371545 0.417776 0.421162
30 2 0.375111 0.408806 0.421098
33 2 0.385721 0.424509 0.423686
32 3 0.37672 0.423454 0.427013
34 2 0.390319 0.430827 0.429355
35 1 0.399402 0.43212 0.42635
36 1 0.40345 0.439024 0.43175
37 1 0.412614 0.44047 0.429088
38 3 0.416164 0.44789 0.43414
39 3 0.425394 0.449452 0.431787
40 1 0.430871 0.44219 0.435018
41 1 0.440126 0.444061 0.433009
42 1 0.445719 0.437071 0.436619
43 2 0.454979 0.439133 0.434829
44 3 0.457392 0.447281 0.439411
45 1 0.466667 0.449327 0.437697
46 1 0.469012 0.457598 0.442093
47 3 0.478314 0.459577 0.440443
48 1 0.480669 0.467941 0.444653
49 3 0.479807 0.467127 0.454233
50 3 0.48241 0.475435 0.458404
51 2 0.481367 0.474705 0.467976
52 3 0.484158 0.482936 0.472184
53 2 0.48287 0.482256 0.481728
54 3 0.485802 0.4904 0.486014
55 2 0.484304 0.489706 0.495528
56 1 0.487358 0.497719 0.499968
57 1 0.48559 0.49692 0.509423
58 2 0.488645 0.504804 0.514088
59 2 0.49827 0.505383 0.513601
61 3 0.498182 0.521142 0.515008
60 3 0.501299 0.512869 0.518892
62 3 0.500869 0.528516 0.520625
63 2 0.510507 0.529039 0.520905
65 1 0.522827 0.536572 0.527222
64 3 0.513193 0.536141 0.526865
66 3 0.525552 0.543401 0.533474
67 1 0.535193 0.543747 0.533837
68 3 0.537984 0.550335 0.540319
69 1 0.547632 0.550618 0.540634
70 2 0.551027 0.554032 0.532265
72 1 0.564021 0.557609 0.524136
71 1 0.560679 0.553957 0.532416
74 2 0.577367 0.562621 0.531012
73 2 0.57366 0.557107 0.524006
75 2 0.586999 0.56206 0.530658
76 3 0.590918 0.567374 0.537703
79 1 0.590795 0.564829 0.561871
80 2 0.596003 0.569169 0.568745
78 3 0.593135 0.568508 0.553257
77 1 0.588532 0.563662 0.546291
81 1 0.59363 0.565543 0.577372