ITEM: TIMESTEP
0
ITEM: NUMBER OF ATOMS
100
ITEM: BOX BOUNDS pp pp pp
0.0000000000000000e+00 5.0000000000000000e+04
0.0000000000000000e+00 5.0000000000000000e+04
0.0000000000000000e+00 5.0000000000000000e+04
ITEM: ATOMS id type xs ys zs
2 3 0.00518159 0.100205 0.100312
3 2 0.0140358 0.100046 0.0997233
4 3 0.0228088 0.100167 0.100656
5 1 0.0314321 0.100021 0.0987964
6 1 0.0400434 0.0994094 0.100371
7 3 0.048825 0.10084 0.100679
8 3 0.0551659 0.0984894 0.0995932
9 1 0.0635077 0.101223 0.100564
10 1 0.0720177 0.0984501 0.100266
11 3 0.0802538 0.101863 0.0998215
12 1 0.0884833 0.0983845 0.100609
13 3 0.096784 0.10168 0.100544
14 3 0.102615 0.0982279 0.0989788
15 2 0.110844 0.100593 0.101698
16 2 0.119215 0.100701 0.09829
17 1 0.127487 0.0982329 0.10074
18 3 0.135724 0.101347 0.0990049
19 2 0.144312 0.100321 0.101321
20 3 0.152938 0.0983113 0.0997204
23 3 0.176382 0.0996025 0.0976397
24 2 0.184334 0.100431 0.101845
25 1 0.192407 0.0992438 0.0981216
27 2 0.207174 0.0995667 0.0981344
28 3 0.215934 0.0998247 0.0999499
29 1 0.224726 0.0997602 0.101465
31 3 0.24026 0.0981841 0.10116
32 1 0.248467 0.10172 0.100469
33 2 0.256752 0.0985706 0.0991239
34 1 0.264998 0.101701 0.100463
35 3 0.273623 0.0998782 0.0996005
36 3 0.28042 0.0997509 0.100311
37 3 0.287248 0.0999111 0.100542
38 2 0.296011 0.100044 0.09991
39 3 0.304682 0.100154 0.100165
40 3 0.31143 0.100084 0.0996958
41 3 0.31818 0.100297 0.0993519
42 1 0.326654 0.0989641 0.101117
43 1 0.335139 0.100247 0.099217
44 2 0.343722 0.1015 0.10098
45 3 0.351863 0.0977928 0.10016
46 1 0.360143 0.101085 0.100585
47 3 0.368662 0.0988913 0.0994422
48 3 0.37501 0.101367 0.099875
49 2 0.383682 0.0997971 0.100211
50 2 0.392538 0.0988901 0.100447
51 1 0.400931 0.101787 0.0999271
52 3 0.409306 0.0985215 0.0997429
53 3 0.41527 0.101518 0.101683
54 1 0.423408 0.0992134 0.0985941
55 2 0.431916 0.0993028 0.101388
56 3 0.440139 0.101676 0.0987255
57 1 0.447802 0.0976623 0.101154
59 1 0.462851 0.0977572 0.0989836
60 1 0.4714 0.100001 0.100187
61 2 0.480135 0.101554 0.100705
62 3 0.488204 0.0977617 0.100047
63 2 0.496263 0.101476 0.0992206
64 1 0.505002 0.100461 0.100149
65 2 0.513777 0.099537 0.0993674
66 3 0.522416 0.100276 0.101413
67 3 0.528496 0.100363 0.0982784
68 3 0.534973 0.100297 0.100572
69 1 0.543685 0.099089 0.100173
70 2 0.552399 0.100312 0.100525
71 3 0.561171 0.100198 0.0994522
72 3 0.567938 0.0991987 0.100058
73 3 0.574611 0.100737 0.100489
74 2 0.583253 0.0993429 0.0988023
75 2 0.59163 0.10117 0.101193
76 1 0.600076 0.0993853 0.0986132
78 3 0.615952 0.100162 0.0978757
80 1 0.632035 0.100135 0.0983416
81 2 0.640267 0.0984173 0.101301
83 1 0.655474 0.097662 0.101151
84 3 0.663647 0.100587 0.0989483
85 2 0.672302 0.101013 0.101259
86 2 0.680689 0.0989615 0.0986578
87 1 0.689114 0.100363 0.10147
88 3 0.697251 0.100372 0.097643
90 2 0.710378 0.100466 0.0982346
91 3 0.718936 0.101207 0.100785
92 2 0.727203 0.0978299 0.100254
93 2 0.735741 0.100571 0.100492
94 3 0.744334 0.100953 0.09804
95 1 0.752285 0.0979819 0.100974
96 2 0.760751 0.100814 0.100201
97 1 0.769598 0.0993836 0.100095
98 3 0.778413 0.100553 0.0990778
99 3 0.78513 0.0998352 0.100606
100 1 0.794057 0.10026 0.100251
1 3 0.998283 0.100439 0.0999884
21 2 0.161025 0.10225 0.0989946
30 1 0.232696 0.102055 0.0981686
58 2 0.455295 0.102506 0.10002
82 3 0.648102 0.102503 0.0994594
22 1 0.168678 0.0987828 0.102245
26 3 0.199737 0.101183 0.102942
77 1 0.608129 0.100609 0.102415
79 2 0.623885 0.10014 0.102109
89 3 0.702376 0.099164 0.102213
ITEM: TIMESTEP
100
ITEM: NUMBER OF ATOMS
100
ITEM: BOX BOUNDS pp pp pp
0.0000000000000000e+00 5.0000000000000000e+04
0.0000000000000000e+00 5.0000000000000000e+04
0.0000000000000000e+00 5.0000000000000000e+04
ITEM: ATOMS id type xs ys zs
2 3 0.00507019 0.100205 0.100338
3 2 0.0139637 0.100037 0.0996652
4 3 0.0227939 0.100178 0.100776
5 1 0.0314306 0.100042 0.0986462
6 1 0.0401227 0.0993341 0.10043
7 3 0.0488838 0.100974 0.100728
8 3 0.055196 0.0983408 0.0995316
9 1 0.0635792 0.101325 0.10059
10 1 0.0720456 0.0983743 0.100266
11 3 0.080282 0.101925 0.0998111
12 1 0.0884814 0.0983345 0.100615
13 3 0.0968082 0.101726 0.100554
14 3 0.102637 0.0982015 0.0989638
15 2 0.110866 0.100597 0.101701
16 2 0.11919 0.100706 0.0982874
17 1 0.127476 0.0982161 0.100752
18 3 0.135717 0.101363 0.0989884
19 2 0.144338 0.100319 0.101333
20 3 0.152959 0.0983137 0.0997175
23 3 0.176385 0.0996028 0.0976537
24 2 0.184308 0.100432 0.101843
25 1 0.192408 0.0992389 0.0981081
27 2 0.207119 0.0995601 0.0981058
28 3 0.21591 0.0998278 0.0999481
29 1 0.224755 0.099739 0.101511
31 3 0.240238 0.0981544 0.101172
32 1 0.24844 0.101766 0.100477
33 2 0.256683 0.0984894 0.0990892
34 1 0.264877 0.101812 0.100513
35 3 0.273514 0.0998272 0.099532
36 3 0.280336 0.0997337 0.100336
37 3 0.287159 0.0999143 0.100601
38 2 0.29593 0.100044 0.0998448
39 3 0.304711 0.100171 0.100232
40 3 0.311481 0.100054 0.0996836
41 3 0.318277 0.100395 0.0992186
42 1 0.326747 0.0988319 0.101303
43 1 0.335243 0.100266 0.0990778
44 2 0.34385 0.101594 0.101047
45 3 0.351853 0.0976816 0.10014
46 1 0.360087 0.101189 0.100618
47 3 0.368618 0.0987448 0.0993996
48 3 0.37497 0.101515 0.0998813
49 2 0.383728 0.0997692 0.100215
50 2 0.392613 0.0988133 0.100462
51 1 0.401018 0.101865 0.099919
52 3 0.409329 0.0984753 0.0997281
53 3 0.415289 0.101545 0.101704
54 1 0.423389 0.0992067 0.0985721
55 2 0.431922 0.0992929 0.101413
56 3 0.440157 0.101695 0.0987083
57 1 0.447807 0.0976451 0.101162
59 1 0.462776 0.0977043 0.0989627
60 1 0.471365 0.100004 0.100194
61 2 0.480169 0.101635 0.100723
62 3 0.488171 0.0976379 0.100053
63 2 0.496173 0.101574 0.0991791
64 1 0.504986 0.100459 0.100199
65 2 0.513822 0.0994914 0.0992913
66 3 0.522433 0.100292 0.101569
67 3 0.528445 0.100368 0.0980827
68 3 0.534871 0.100346 0.100683
69 1 0.543653 0.0989825 0.100138
70 2 0.55242 0.100373 0.100588
71 3 0.561224 0.10024 0.0993773
72 3 0.567994 0.0990909 0.10007
73 3 0.574683 0.100826 0.10054
74 2 0.583312 0.0992879 0.0987338
75 2 0.59171 0.101202 0.101238
76 1 0.600103 0.0993766 0.0985987
78 3 0.615926 0.100163 0.0978854
80 1 0.632013 0.100146 0.0983115
81 2 0.64031 0.0984038 0.10132
83 1 0.655456 0.0976384 0.101164
84 3 0.663652 0.100599 0.0989305
85 2 0.672328 0.101016 0.101269
86 2 0.680686 0.0989588 0.0986534
87 1 0.689113 0.100365 0.101476
88 3 0.697248 0.100375 0.0976291
90 2 0.710338 0.100463 0.0982223
91 3 0.718918 0.101235 0.100801
92 2 0.727201 0.0977864 0.100248
93 2 0.735735 0.100588 0.100513
94 3 0.744355 0.100973 0.0980041
95 1 0.752268 0.0979441 0.100996
96 2 0.760731 0.100848 0.100196
97 1 0.769582 0.0993568 0.100106
98 3 0.778409 0.100578 0.0990427
99 3 0.785161 0.0998206 0.100633
100 1 0.794128 0.100263 0.100248
1 3 0.998128 0.100444 0.0999808
21 2 0.161024 0.102241 0.0989994
30 1 0.232745 0.102087 0.0981309
58 2 0.455271 0.102537 0.100023
82 3 0.648092 0.102517 0.0994542
22 1 0.16868 0.0987881 0.102234
26 3 0.199729 0.10119 0.102963
77 1 0.608158 0.100609 0.102406
79 2 0.623863 0.10014 0.102124
89 3 0.702387 0.0991613 0.102223
ITEM: TIMESTEP
200
ITEM: NUMBER OF ATOMS
100
ITEM: BOX BOUNDS pp pp pp
0.0000000000000000e+00 5.0000000000000000e+04
0.0000000000000000e+00 5.0000000000000000e+04
0.0000000000000000e+00 5.0000000000000000e+04
ITEM: ATOMS id type xs ys zs
2 3 0.00503013 0.100241 0.100438
3 2 0.0139594 0.100074 0.0996857
4 3 0.0227622 0.100201 0.100754
5 1 0.0314718 0.100048 0.0986387
6 1 0.0401501 0.0993675 0.100434
7 3 0.0488903 0.100996 0.100721
8 3 0.055239 0.0983789 0.099563
9 1 0.0636424 0.101317 0.100595
10 1 0.0720732 0.0983542 0.100224
11 3 0.0803312 0.101894 0.0998239
12 1 0.0885175 0.0983133 0.100626
13 3 0.0968026 0.10175 0.100548
14 3 0.102662 0.098216 0.0989451
15 2 0.110861 0.100607 0.101652
16 2 0.119171 0.100725 0.0982676
17 1 0.127428 0.098257 0.100806
18 3 0.135703 0.101351 0.0989891
19 2 0.144301 0.100276 0.101365
20 3 0.152954 0.0983297 0.0996842
23 3 0.176437 0.0996708 0.0976493
24 2 0.184269 0.100489 0.101864
25 1 0.192371 0.0992069 0.0981444
27 2 0.207114 0.099546 0.0981097
28 3 0.215877 0.0998114 0.0999844
29 1 0.224764 0.099728 0.101509
31 3 0.240252 0.0981167 0.101171
32 1 0.248436 0.101761 0.100483
33 2 0.25666 0.0984617 0.0990781
34 1 0.264881 0.101826 0.100566
35 3 0.273566 0.0998029 0.0994869
36 3 0.280331 0.0997392 0.100329
37 3 0.28717 0.0998474 0.100608
38 2 0.295928 0.100025 0.0998722
39 3 0.304725 0.100156 0.100235
40 3 0.311482 0.100043 0.0996717
41 3 0.318257 0.100357 0.0992485
42 1 0.326772 0.0988311 0.101309
43 1 0.33523 0.100257 0.0990415
44 2 0.343866 0.101632 0.101043
45 3 0.351828 0.0977004 0.100134
46 1 0.360112 0.101203 0.100621
47 3 0.368679 0.0986746 0.0994466
48 3 0.374974 0.101546 0.0998769
49 2 0.383713 0.0997693 0.100221
50 2 0.392664 0.0988441 0.10048
51 1 0.401052 0.101857 0.0999124
52 3 0.409304 0.0984357 0.0997499
53 3 0.41532 0.10152 0.101744
54 1 0.423393 0.0992238 0.0985577
55 2 0.431893 0.09926 0.101467
56 3 0.440164 0.101701 0.0987316
57 1 0.447842 0.097658 0.101108
59 1 0.462758 0.0976572 0.0989529
60 1 0.471357 0.100009 0.100207
61 2 0.480153 0.101625 0.100767
62 3 0.488154 0.0976262 0.100029
63 2 0.496163 0.101636 0.0991797
64 1 0.504964 0.100456 0.100231
65 2 0.51381 0.0994926 0.0993032
66 3 0.522438 0.100291 0.101602
67 3 0.528433 0.100383 0.0979989
68 3 0.534836 0.100357 0.100629
69 1 0.543641 0.0990249 0.1001
70 2 0.55244 0.10042 0.100613
71 3 0.561238 0.100195 0.0993498
72 3 0.567991 0.0990836 0.100057
73 3 0.574649 0.100854 0.100531
74 2 0.583338 0.0993149 0.0986845
75 2 0.591682 0.101185 0.101285
76 1 0.600108 0.099375 0.0985655
78 3 0.615918 0.10017 0.0978056
80 1 0.631975 0.10013 0.0982838
81 2 0.640311 0.0984031 0.10133
83 1 0.655435 0.0975978 0.101173
84 3 0.663603 0.100605 0.0989837
85 2 0.672348 0.100977 0.101247
86 2 0.680713 0.0990151 0.0986126
87 1 0.689077 0.100314 0.101483
88 3 0.697262 0.100397 0.0976125
90 2 0.710339 0.100446 0.0982112
91 3 0.718876 0.101197 0.100831
92 2 0.727207 0.0977996 0.100209
93 2 0.735775 0.100559 0.100532
94 3 0.744369 0.100963 0.0979844
95 1 0.752268 0.0979086 0.100971
96 2 0.760733 0.100861 0.10014
97 1 0.76956 0.0993547 0.100094
98 3 0.778423 0.100537 0.0990785
99 3 0.785155 0.0999094 0.100662
100 1 0.794112 0.100262 0.100257
1 3 0.998092 0.10044 0.100017
21 2 0.161 0.102254 0.0990145
30 1 0.232752 0.102094 0.09817
58 2 0.455255 0.102512 0.100039
82 3 0.648156 0.10253 0.0994223
22 1 0.168729 0.0988653 0.10228
26 3 0.199742 0.101188 0.102993
77 1 0.608199 0.10064 0.102381
79 2 0.623866 0.100145 0.10209
89 3 0.702356 0.0991157 0.102224
ITEM: TIMESTEP
300
ITEM: NUMBER OF ATOMS
100
ITEM: BOX BOUNDS pp pp pp
0.0000000000000000e+00 5.0000000000000000e+04
0.0000000000000000e+00 5.0000000000000000e+04
0.0000000000000000e+00 5.0000000000000000e+04
ITEM: ATOMS id type xs ys zs
2 3 0.00498716 0.100279 0.100548
3 2 0.0138896 0.100112 0.0996917
4 3 0.0227933 0.100228 0.100753
5 1 0.0314637 0.10006 0.0986027
6 1 0.0401836 0.0993799 0.100455
7 3 0.0489518 0.101047 0.100723
8 3 0.0552843 0.0983957 0.0995868
9 1 0.063698 0.101333 0.100606
10 1 0.0721365 0.098315 0.100177
11 3 0.0803694 0.101873 0.099835
12 1 0.0885559 0.098273 0.100639
13 3 0.0968335 0.101775 0.100537
14 3 0.102644 0.0982326 0.0989203
15 2 0.110864 0.100626 0.101619
16 2 0.11916 0.100749 0.0982349
17 1 0.127401 0.0983014 0.100864
18 3 0.135667 0.101335 0.0989899
19 2 0.144289 0.100226 0.101397
20 3 0.152918 0.0983442 0.0996538
23 3 0.17643 0.099736 0.0976315
24 2 0.184276 0.100554 0.101909
25 1 0.192354 0.0991808 0.0982018
27 2 0.207088 0.0995294 0.0981056
28 3 0.215878 0.0997948 0.10003
29 1 0.224747 0.0997117 0.101511
31 3 0.240254 0.098073 0.101169
32 1 0.248423 0.10177 0.100493
33 2 0.256657 0.0984255 0.0990634
34 1 0.26486 0.101844 0.100624
35 3 0.273497 0.0997737 0.0994183
36 3 0.280335 0.0997415 0.100335
37 3 0.287142 0.0997754 0.100636
38 2 0.295932 0.100007 0.099879
39 3 0.304724 0.100145 0.10026
40 3 0.311498 0.100021 0.0996544
41 3 0.318315 0.100342 0.0992465
42 1 0.326794 0.0987968 0.101364
43 1 0.335284 0.100259 0.0989696
44 2 0.343862 0.101701 0.101053
45 3 0.351855 0.0976964 0.100123
46 1 0.36014 0.101215 0.100622
47 3 0.368691 0.0985796 0.0994934
48 3 0.374968 0.101614 0.0998734
49 2 0.38375 0.0997581 0.100228
50 2 0.392673 0.0988575 0.100503
51 1 0.401094 0.101887 0.0999029
52 3 0.409353 0.0983893 0.0997816
53 3 0.41531 0.101482 0.101782
54 1 0.423402 0.0992376 0.0985333
55 2 0.431905 0.0992346 0.101518
56 3 0.440137 0.101698 0.0987659
57 1 0.447834 0.0976398 0.101059
59 1 0.462738 0.0976075 0.0989426
60 1 0.471318 0.10001 0.10022
61 2 0.480147 0.101628 0.100817
62 3 0.488149 0.0976018 0.100002
63 2 0.496111 0.101711 0.0991743
64 1 0.504942 0.100453 0.100275
65 2 0.513814 0.0994863 0.0993035
66 3 0.522466 0.100292 0.101648
67 3 0.528369 0.1004 0.0978827
68 3 0.534791 0.100378 0.100601
69 1 0.543629 0.099049 0.100051
70 2 0.552436 0.100482 0.100656
71 3 0.561246 0.100162 0.099297
72 3 0.568012 0.09904 0.100048
73 3 0.574692 0.100903 0.100525
74 2 0.58332 0.0993347 0.0986203
75 2 0.59172 0.101171 0.101341
76 1 0.600113 0.0993826 0.0985502
78 3 0.615936 0.100177 0.0977264
80 1 0.631991 0.100106 0.0982529
81 2 0.640327 0.0984319 0.101319
83 1 0.655418 0.0975348 0.101191
84 3 0.663596 0.10062 0.0990428
85 2 0.672331 0.100937 0.10122
86 2 0.680709 0.0990658 0.0985519
87 1 0.689117 0.100267 0.101489
88 3 0.697238 0.100421 0.0976075
90 2 0.710293 0.100423 0.0982018
91 3 0.718869 0.101154 0.100869
92 2 0.727206 0.0978197 0.100169
93 2 0.735792 0.100526 0.100557
94 3 0.744389 0.100958 0.0979524
95 1 0.752281 0.0978657 0.10095
96 2 0.760701 0.100881 0.100081
97 1 0.769564 0.0993459 0.100083
98 3 0.778401 0.1005 0.0991058
99 3 0.785168 0.0999983 0.100704
100 1 0.794118 0.100262 0.100265
1 3 0.998017 0.100438 0.100053
21 2 0.16102 0.10226 0.0990426
30 1 0.232776 0.102106 0.0982053
58 2 0.455285 0.102516 0.100048
82 3 0.64816 0.102533 0.0993944
22 1 0.168767 0.0989625 0.102304
26 3 0.199726 0.101179 0.10301
77 1 0.608211 0.100669 0.102347
79 2 0.623824 0.10015 0.102058
89 3 0.702349 0.09907 0.102218
ITEM: TIMESTEP
400
ITEM: NUMBER OF ATOMS
100
ITEM: BOX BOUNDS pp pp pp
0.0000000000000000e+00 5.0000000000000000e+04
0.0000000000000000e+00 5.0000000000000000e+04
0.0000000000000000e+00 5.0000000000000000e+04
ITEM: ATOMS id type xs ys zs
2 3 0.00491773 0.100315 0.100656
3 2 0.0138363 0.100145 0.0996903
4 3 0.0228025 0.100254 0.100767
5 1 0.0314579 0.100075 0.0985479
6 1 0.0402089 0.0993781 0.100482
7 3 0.0490314 0.101117 0.100731
8 3 0.055334 0.0983917 0.0996012
9 1 0.0637518 0.101363 0.100619
10 1 0.0721981 0.0982642 0.100133
11 3 0.0804079 0.101867 0.0998433
12 1 0.0885978 0.0982259 0.100653
13 3 0.0968663 0.101804 0.100527
14 3 0.102615 0.0982409 0.0988907
15 2 0.110857 0.100647 0.101604
16 2 0.119168 0.100773 0.0981917
17 1 0.127386 0.0983412 0.10092
18 3 0.135645 0.101319 0.0989948
19 2 0.144267 0.10018 0.101422
20 3 0.152893 0.0983645 0.099625
23 3 0.176403 0.0997947 0.0976098
24 2 0.184294 0.100617 0.101961
25 1 0.192356 0.0991596 0.0982626
27 2 0.207065 0.0995138 0.0981016
28 3 0.215873 0.0997793 0.100071
29 1 0.22474 0.0996976 0.101512
31 3 0.240252 0.0980293 0.101169
32 1 0.248417 0.101779 0.100501
33 2 0.256666 0.0983977 0.0990524
34 1 0.2648 0.101863 0.100679
35 3 0.273381 0.0997401 0.0993399
36 3 0.280277 0.0997425 0.100345
37 3 0.287119 0.0997053 0.10068
38 2 0.29592 0.0999911 0.0998668
39 3 0.304725 0.100141 0.100305
40 3 0.311538 0.0999917 0.0996323
41 3 0.318404 0.10035 0.0992144
42 1 0.326861 0.0987407 0.101451
43 1 0.33534 0.100262 0.0988807
44 2 0.343889 0.101777 0.101072
45 3 0.351898 0.0976927 0.100111
46 1 0.360168 0.101218 0.100622
47 3 0.368679 0.0984898 0.0995379
48 3 0.37496 0.101685 0.0998703
49 2 0.383777 0.0997471 0.100236
50 2 0.39268 0.0988601 0.100526
51 1 0.401134 0.10193 0.0998928
52 3 0.40942 0.0983385 0.0998112
53 3 0.415302 0.101446 0.101816
54 1 0.423415 0.0992514 0.0985147
55 2 0.431922 0.0992152 0.101557
56 3 0.440096 0.101692 0.0988024
57 1 0.447806 0.0976085 0.101017
59 1 0.462725 0.0975581 0.0989323
60 1 0.471279 0.10001 0.100231
61 2 0.480141 0.101633 0.100863
62 3 0.488146 0.0975763 0.0999764
63 2 0.496055 0.101783 0.0991679
64 1 0.504914 0.100449 0.100318
65 2 0.513832 0.0994786 0.0993019
66 3 0.522494 0.100293 0.10169
67 3 0.52829 0.100415 0.0977675
68 3 0.534732 0.100403 0.100584
69 1 0.543608 0.0990591 0.100001
70 2 0.552414 0.10055 0.100709
71 3 0.561242 0.10014 0.0992304
72 3 0.568068 0.098977 0.100044
73 3 0.57475 0.100962 0.100526
74 2 0.583333 0.0993522 0.0985601
75 2 0.59176 0.101152 0.101383
76 1 0.600123 0.0993968 0.0985521
78 3 0.615943 0.100184 0.0976584
80 1 0.632025 0.10008 0.0982368
81 2 0.640345 0.0984794 0.101292
83 1 0.655405 0.0974749 0.101208
84 3 0.663594 0.100634 0.0990994
85 2 0.672304 0.1009 0.101196
86 2 0.680703 0.0991101 0.0984901
87 1 0.689163 0.100225 0.101497
88 3 0.697221 0.100441 0.0976101
90 2 0.710255 0.100401 0.0981968
91 3 0.71886 0.101112 0.100902
92 2 0.727207 0.0978427 0.100132
93 2 0.735797 0.100493 0.100582
94 3 0.744406 0.100957 0.097919
95 1 0.75229 0.0978198 0.100934
96 2 0.760676 0.100904 0.100025
97 1 0.769549 0.0993336 0.100075
98 3 0.778384 0.100469 0.0991234
99 3 0.785177 0.100079 0.100749
100 1 0.794149 0.100262 0.100272
1 3 0.997938 0.100436 0.100086
21 2 0.161043 0.102252 0.099077
30 1 0.232794 0.102116 0.0982391
58 2 0.45533 0.102537 0.100055
82 3 0.648131 0.102523 0.0993752
22 1 0.16879 0.099061 0.102316
26 3 0.199696 0.101167 0.103018
77 1 0.608208 0.100692 0.102299
79 2 0.623793 0.100154 0.102024
89 3 0.702338 0.0990298 0.102205
ITEM: TIMESTEP
500
ITEM: NUMBER OF ATOMS
100
ITEM: BOX BOUNDS pp pp pp
0.0000000000000000e+00 5.0000000000000000e+04
0.0000000000000000e+00 5.0000000000000000e+04
0.0000000000000000e+00 5.0000000000000000e+04
ITEM: ATOMS id type xs ys zs
2 3 0.00483938 0.100346 0.10075
3 2 0.0138244 0.100174 0.0996893
4 3 0.0227533 0.100277 0.100787
5 1 0.0314833 0.100087 0.0984883
6 1 0.0402356 0.0993749 0.100507
7 3 0.0490791 0.101189 0.100743
8 3 0.0553917 0.0983734 0.0996076
9 1 0.0638135 0.101391 0.100632
10 1 0.0722283 0.0982144 0.100097
11 3 0.0804581 0.10187 0.0998497
12 1 0.08864 0.0981873 0.100666
13 3 0.0968664 0.10184 0.100526
14 3 0.102614 0.0982343 0.0988593
15 2 0.110841 0.100665 0.101594
16 2 0.11918 0.100796 0.0981492
17 1 0.12737 0.0983715 0.100971
18 3 0.135651 0.101304 0.0990026
19 2 0.144231 0.100143 0.101439
20 3 0.152899 0.098395 0.0995986
23 3 0.176418 0.0998491 0.0976002
24 2 0.184275 0.100669 0.101993
25 1 0.192349 0.0991361 0.0983023
27 2 0.207057 0.0995024 0.0981067
28 3 0.215841 0.0997655 0.100101
29 1 0.224756 0.0996895 0.101509
31 3 0.240259 0.0979936 0.101169
32 1 0.248425 0.101776 0.100505
33 2 0.256647 0.0983789 0.099045
34 1 0.264716 0.101892 0.100734
35 3 0.273292 0.0997013 0.0992618
36 3 0.280148 0.0997439 0.100352
37 3 0.287088 0.0996407 0.100734
38 2 0.295892 0.0999791 0.0998382
39 3 0.304747 0.100141 0.100361
40 3 0.311602 0.0999593 0.0996071
41 3 0.318495 0.100376 0.0991622
42 1 0.326979 0.0986766 0.101549
43 1 0.335371 0.100261 0.0987935
44 2 0.343964 0.101835 0.101092
45 3 0.351916 0.0977033 0.100105
46 1 0.360192 0.101218 0.100621
47 3 0.368699 0.0984313 0.0995783
48 3 0.374941 0.101723 0.0998669
49 2 0.383747 0.0997455 0.10024
50 2 0.392726 0.0988629 0.100547
51 1 0.401178 0.101956 0.0998847
52 3 0.40943 0.0982878 0.099827
53 3 0.415341 0.101424 0.101848
54 1 0.42343 0.099268 0.0985139
55 2 0.4319 0.0991944 0.101588
56 3 0.440076 0.101691 0.0988292
57 1 0.447807 0.0975988 0.100977
59 1 0.462717 0.0975098 0.0989218
60 1 0.47127 0.100015 0.100243
61 2 0.480126 0.101628 0.100901
62 3 0.48813 0.0975597 0.0999562
63 2 0.496032 0.101842 0.0991653
64 1 0.504889 0.100448 0.10035
65 2 0.513842 0.0994758 0.0993072
66 3 0.522504 0.100293 0.101722
67 3 0.52824 0.100428 0.0976781
68 3 0.53466 0.100426 0.100562
69 1 0.543565 0.0990625 0.0999553
70 2 0.552395 0.100614 0.100761
71 3 0.561247 0.100124 0.099166
72 3 0.568125 0.0989163 0.100043
73 3 0.574781 0.101022 0.100535
74 2 0.583415 0.0993703 0.0985152
75 2 0.591757 0.101126 0.101404
76 1 0.600132 0.0994104 0.0985568
78 3 0.615921 0.100191 0.0976074
80 1 0.632021 0.100056 0.0982424
81 2 0.640345 0.0985158 0.101269
83 1 0.655387 0.0974456 0.101213
84 3 0.663553 0.100638 0.0991465
85 2 0.672307 0.100869 0.101179
86 2 0.680724 0.0991524 0.098448
87 1 0.689146 0.100185 0.101507
88 3 0.697245 0.100457 0.0976065
90 2 0.710262 0.100387 0.0981965
91 3 0.718822 0.101073 0.100921
92 2 0.727209 0.0978631 0.100101
93 2 0.735815 0.100465 0.100598
94 3 0.744408 0.100954 0.0978963
95 1 0.752284 0.0977774 0.100919
96 2 0.76067 0.100927 0.0999757
97 1 0.769503 0.0993204 0.100071
98 3 0.778391 0.100447 0.0991343
99 3 0.78518 0.100147 0.10079
100 1 0.794185 0.100263 0.100277
1 3 0.997871 0.100434 0.100114
21 2 0.161026 0.102236 0.0991045
30 1 0.232793 0.102122 0.0982729
58 2 0.455335 0.102544 0.100065
82 3 0.64814 0.102504 0.0993618
22 1 0.168809 0.0991408 0.102337
26 3 0.199692 0.10116 0.103029
77 1 0.608222 0.100709 0.102244
79 2 0.623811 0.100158 0.101983
89 3 0.702308 0.0989959 0.102191
ITEM: TIMESTEP
600
ITEM: NUMBER OF ATOMS
100
ITEM: BOX BOUNDS pp pp pp
0.0000000000000000e+00 5.0000000000000000e+04
0.0000000000000000e+00 5.0000000000000000e+04
0.0000000000000000e+00 5.0000000000000000e+04
ITEM: ATOMS id type xs ys zs
2 3 0.00480427 0.100372 0.100827
3 2 0.0137826 0.1002 0.0996926
4 3 0.0227295 0.100297 0.100798
5 1 0.0314948 0.100097 0.0984448
6 1 0.0402703 0.0993772 0.100527
7 3 0.049103 0.101245 0.100752
8 3 0.0554403 0.0983609 0.0996143
9 1 0.06387 0.10141 0.100642
10 1 0.0722533 0.0981771 0.100066
11 3 0.0805014 0.101868 0.099856
12 1 0.0886712 0.0981577 0.100675
13 3 0.0968581 0.101875 0.100527
14 3 0.102623 0.098225 0.0988312
15 2 0.110839 0.10068 0.101579
16 2 0.119173 0.100816 0.0981182
17 1 0.12736 0.0983974 0.101015
18 3 0.135653 0.101291 0.099009
19 2 0.144223 0.100106 0.101449
20 3 0.152885 0.0984262 0.0995804
23 3 0.176459 0.0998985 0.097602
24 2 0.184242 0.10071 0.102005
25 1 0.192318 0.0991117 0.0983263
27 2 0.207053 0.0994945 0.0981177
28 3 0.215823 0.0997532 0.100127
29 1 0.224752 0.099683 0.101503
31 3 0.240275 0.0979732 0.101165
32 1 0.248425 0.101762 0.100508
33 2 0.256597 0.0983559 0.0990351
34 1 0.264646 0.101933 0.10079
35 3 0.273194 0.0996624 0.0991845
36 3 0.280037 0.0997459 0.100363
37 3 0.286998 0.0995807 0.100794
38 2 0.295876 0.099971 0.0997971
39 3 0.304786 0.100146 0.100424
40 3 0.311675 0.0999258 0.0995808
41 3 0.318613 0.100406 0.0991082
42 1 0.327084 0.0986146 0.101643
43 1 0.335435 0.100268 0.0987192
44 2 0.344018 0.101875 0.101103
45 3 0.351926 0.0977197 0.100101
46 1 0.360218 0.101212 0.100618
47 3 0.368746 0.0984051 0.0996161
48 3 0.374912 0.101729 0.0998631
49 2 0.383718 0.0997478 0.100243
50 2 0.392762 0.0988738 0.100562
51 1 0.401217 0.101963 0.099879
52 3 0.409415 0.0982506 0.0998392
53 3 0.415387 0.101407 0.101874
54 1 0.423443 0.099284 0.0985183
55 2 0.431865 0.0991735 0.101616
56 3 0.440074 0.10169 0.09885
57 1 0.447833 0.0976126 0.100938
59 1 0.462713 0.0974744 0.0989149
60 1 0.471274 0.10002 0.100253
61 2 0.480113 0.101611 0.100929
62 3 0.488113 0.097563 0.0999395
63 2 0.49603 0.101879 0.099169
64 1 0.504882 0.100446 0.100368
65 2 0.513825 0.0994806 0.0993234
66 3 0.522503 0.100291 0.101734
67 3 0.528209 0.100439 0.0976215
68 3 0.534594 0.100441 0.10053
69 1 0.543509 0.0990692 0.099918
70 2 0.552383 0.100668 0.100804
71 3 0.56127 0.100106 0.0991154
72 3 0.56815 0.0988692 0.100039
73 3 0.574819 0.10107 0.100539
74 2 0.583474 0.0993886 0.0984802
75 2 0.591759 0.101102 0.10142
76 1 0.600125 0.0994219 0.0985589
78 3 0.615914 0.100197 0.0975722
80 1 0.631998 0.100037 0.098251
81 2 0.640329 0.0985341 0.101258
83 1 0.655361 0.0974335 0.101212
84 3 0.663507 0.10064 0.0991869
85 2 0.672324 0.100841 0.101164
86 2 0.680745 0.0991923 0.0984196
87 1 0.689115 0.100148 0.101513
88 3 0.697261 0.100473 0.0975949
90 2 0.71027 0.100375 0.0982012
91 3 0.718795 0.101034 0.100934
92 2 0.727204 0.0978864 0.100075
93 2 0.73584 0.100441 0.100607
94 3 0.744405 0.100947 0.0978848
95 1 0.752274 0.0977465 0.100903
96 2 0.760647 0.100948 0.0999338
97 1 0.769482 0.099307 0.100067
98 3 0.778391 0.100428 0.0991434
99 3 0.785199 0.100206 0.100825
100 1 0.794202 0.100264 0.100283
1 3 0.997815 0.100432 0.100139
21 2 0.160997 0.102226 0.0991226
30 1 0.232797 0.102124 0.0983045
58 2 0.455315 0.102525 0.100077
82 3 0.648186 0.102488 0.0993489
22 1 0.168833 0.0992034 0.102363
26 3 0.199715 0.101157 0.103047
77 1 0.608244 0.100726 0.1022
79 2 0.623828 0.100161 0.101933
89 3 0.702296 0.0989656 0.102183
ITEM: TIMESTEP
700
ITEM: NUMBER OF ATOMS
100
ITEM: BOX BOUNDS pp pp pp
0.0000000000000000e+00 5.0000000000000000e+04
0.0000000000000000e+00 5.0000000000000000e+04
0.0000000000000000e+00 5.0000000000000000e+04
ITEM: ATOMS id type xs ys zs
2 3 0.00479086 0.100396 0.100891
3 2 0.0137226 0.100224 0.0997026
4 3 0.0227468 0.100313 0.100792
5 1 0.0314868 0.100105 0.0984286
6 1 0.0402904 0.0993881 0.100538
7 3 0.0491363 0.101274 0.100752
8 3 0.0554657 0.0983725 0.0996293
9 1 0.0639098 0.101421 0.100649
10 1 0.0722975 0.0981556 0.100037
11 3 0.0805235 0.10185 0.0998632
12 1 0.088689 0.0981318 0.100684
13 3 0.0968723 0.101898 0.100522
14 3 0.102618 0.0982291 0.0988118
15 2 0.11085 0.100693 0.101556
16 2 0.11916 0.10083 0.0981004
17 1 0.127346 0.098427 0.10105
18 3 0.135642 0.101278 0.0990147
19 2 0.144234 0.100069 0.101458
20 3 0.152841 0.0984486 0.099567
23 3 0.176475 0.0999423 0.0976028
24 2 0.184234 0.100748 0.102018
25 1 0.192284 0.0990929 0.0983574
27 2 0.207054 0.0994866 0.0981268
28 3 0.215828 0.0997416 0.100155
29 1 0.224723 0.0996768 0.101495
31 3 0.240286 0.0979637 0.101157
32 1 0.248402 0.101753 0.100515
33 2 0.256554 0.0983218 0.0990201
34 1 0.264584 0.10198 0.100847
35 3 0.273072 0.0996228 0.0991036
36 3 0.279952 0.0997488 0.100379
37 3 0.286892 0.0995224 0.100856
38 2 0.295854 0.0999643 0.0997504
39 3 0.304831 0.100153 0.100491
40 3 0.311765 0.0998918 0.0995524
41 3 0.31876 0.100432 0.0990606
42 1 0.327172 0.0985606 0.101725
43 1 0.335526 0.10028 0.098661
44 2 0.344028 0.101909 0.101104
45 3 0.351949 0.0977364 0.100097
46 1 0.360256 0.101195 0.100612
47 3 0.368774 0.0983928 0.0996543
48 3 0.374905 0.101724 0.0998605
49 2 0.38373 0.0997499 0.100247
50 2 0.392749 0.0988989 0.100572
51 1 0.401233 0.10196 0.0998755
52 3 0.409431 0.098234 0.0998616
53 3 0.415385 0.101376 0.101891
54 1 0.423449 0.0992962 0.0985114
55 2 0.431862 0.0991577 0.101643
56 3 0.440066 0.101682 0.0988755
57 1 0.447847 0.0976266 0.1009
59 1 0.462711 0.0974617 0.098915
60 1 0.471262 0.10002 0.10026
61 2 0.480108 0.101586 0.100953
62 3 0.488116 0.0975914 0.0999226
63 2 0.496033 0.101889 0.0991807
64 1 0.504881 0.100446 0.100374
65 2 0.513798 0.0994928 0.0993527
66 3 0.522491 0.100287 0.10172
67 3 0.528172 0.100449 0.0975905
68 3 0.534552 0.100451 0.100492
69 1 0.543472 0.099089 0.0998903
70 2 0.552375 0.100706 0.10083
71 3 0.561282 0.100086 0.0990835
72 3 0.568164 0.0988432 0.100032
73 3 0.574859 0.101097 0.100532
74 2 0.583466 0.0994074 0.098447
75 2 0.591786 0.101085 0.101445
76 1 0.600115 0.0994314 0.0985579
78 3 0.615944 0.100202 0.0975415
80 1 0.631988 0.100021 0.0982437
81 2 0.640325 0.0985485 0.101252
83 1 0.655345 0.0974075 0.101218
84 3 0.663499 0.100646 0.0992283
85 2 0.67232 0.100813 0.101141
86 2 0.680743 0.0992288 0.0983896
87 1 0.68913 0.100117 0.101511
88 3 0.697237 0.10049 0.0975873
90 2 0.710249 0.100359 0.0982078
91 3 0.718797 0.100995 0.100949
92 2 0.727202 0.0979178 0.100054
93 2 0.73585 0.100413 0.100614
94 3 0.74441 0.100936 0.0978785
95 1 0.752266 0.097726 0.100883
96 2 0.760607 0.100964 0.0998961
97 1 0.769489 0.0992957 0.100062
98 3 0.778385 0.100407 0.0991572
99 3 0.785218 0.100261 0.100853
100 1 0.794203 0.100264 0.100288
1 3 0.997782 0.100431 0.100163
21 2 0.16099 0.102226 0.099139
30 1 0.232813 0.102119 0.0983374
58 2 0.45532 0.102498 0.100084
82 3 0.648213 0.102484 0.0993324
22 1 0.168865 0.0992631 0.102381
26 3 0.199727 0.101154 0.103062
77 1 0.608254 0.100743 0.102171
79 2 0.623798 0.100164 0.101886
89 3 0.70231 0.0989365 0.102179
ITEM: TIMESTEP
800
ITEM: NUMBER OF ATOMS
100
ITEM: BOX BOUNDS pp pp pp
0.0000000000000000e+00 5.0000000000000000e+04
0.0000000000000000e+00 5.0000000000000000e+04
0.0000000000000000e+00 5.0000000000000000e+04
ITEM: ATOMS id type xs ys zs
2 3 0.00475712 0.10042 0.100953
3 2 0.0137149 0.100251 0.0997239
4 3 0.0227428 0.100329 0.100763
5 1 0.0314937 0.100109 0.0984406
6 1 0.0402881 0.0994136 0.100534
7 3 0.0491688 0.101278 0.100745
8 3 0.0554809 0.0984125 0.0996553
9 1 0.0639412 0.101415 0.100651
10 1 0.0723412 0.0981463 0.100007
11 3 0.0805399 0.101822 0.0998719
12 1 0.0887078 0.0981118 0.100692
13 3 0.0968976 0.101907 0.100512
14 3 0.102609 0.0982496 0.0988019
15 2 0.110849 0.100702 0.101526
16 2 0.119163 0.10084 0.0980895
17 1 0.127318 0.0984653 0.10108
18 3 0.135634 0.101262 0.0990243
19 2 0.144208 0.100037 0.101471
20 3 0.152817 0.0984638 0.099547
23 3 0.176461 0.0999852 0.0975945
24 2 0.184247 0.10079 0.102046
25 1 0.192277 0.09908 0.0984061
27 2 0.207066 0.0994773 0.098134
28 3 0.215826 0.0997292 0.100183
29 1 0.224709 0.0996746 0.10148
31 3 0.240281 0.0979482 0.101149
32 1 0.248371 0.101759 0.100524
33 2 0.256536 0.0982798 0.0990019
34 1 0.264499 0.10203 0.100908
35 3 0.272954 0.0995775 0.0990151
36 3 0.279839 0.0997528 0.100394
37 3 0.286837 0.0994618 0.100919
38 2 0.295811 0.0999561 0.0997059
39 3 0.304872 0.10016 0.10056
40 3 0.311881 0.0998583 0.0995216
41 3 0.318906 0.100453 0.0990182
42 1 0.32729 0.0985172 0.101789
43 1 0.335576 0.100283 0.0986161
44 2 0.344046 0.101941 0.101105
45 3 0.351977 0.0977614 0.100095
46 1 0.360299 0.101169 0.100604
47 3 0.36878 0.0983785 0.0996955
48 3 0.374949 0.101716 0.09986
49 2 0.383756 0.099756 0.100252
50 2 0.392718 0.0989434 0.100577
51 1 0.40122 0.101941 0.0998748
52 3 0.409462 0.0982299 0.099892
53 3 0.415355 0.101336 0.101906
54 1 0.423449 0.099307 0.098495
55 2 0.431887 0.0991446 0.101674
56 3 0.440049 0.101669 0.0989071
57 1 0.447832 0.0976258 0.100862
59 1 0.462717 0.0974626 0.0989202
60 1 0.47124 0.100015 0.100265
61 2 0.4801 0.101555 0.100977