ITEM: TIMESTEP
0
ITEM: NUMBER OF ATOMS
100
ITEM: BOX BOUNDS ff ff ff
0.0000000000000000e+00 1.5850000000000000e+02
0.0000000000000000e+00 1.5850000000000000e+02
0.0000000000000000e+00 1.5850000000000000e+02
ITEM: ATOMS id type xs ys zs
1 2 0.198594 0.202252 0.203552
2 3 0.207554 0.204766 0.20617
3 1 0.208099 0.211197 0.213434
4 1 0.217358 0.2131 0.215837
5 2 0.217797 0.219733 0.223157
6 1 0.227032 0.222147 0.225932
7 1 0.227454 0.229015 0.233018
8 3 0.236606 0.231808 0.235582
9 1 0.237532 0.238944 0.242584
10 2 0.246631 0.241725 0.245603
11 3 0.24787 0.249046 0.252466
12 3 0.256843 0.251821 0.255184
13 2 0.257976 0.259241 0.262004
14 3 0.266864 0.262117 0.265892
15 2 0.268169 0.270075 0.271777
16 3 0.277374 0.27243 0.275763
17 2 0.278525 0.280702 0.281708
18 3 0.287409 0.283129 0.286364
19 2 0.289111 0.291655 0.291837
20 2 0.297894 0.293768 0.297129
21 3 0.299831 0.302695 0.301854
22 3 0.307818 0.304235 0.307748
23 2 0.310817 0.313551 0.311572
24 1 0.318015 0.315485 0.319024
25 1 0.322015 0.324722 0.322056
26 2 0.328329 0.326777 0.330158
27 1 0.333315 0.335726 0.332979
28 3 0.339118 0.337849 0.341625
29 3 0.344755 0.3459 0.343999
30 2 0.349113 0.348765 0.353252
31 3 0.356521 0.356426 0.355098
32 3 0.35971 0.360328 0.36401
33 2 0.367615 0.367244 0.365814
34 2 0.370391 0.372032 0.375133
35 1 0.378726 0.378529 0.377462
36 1 0.381842 0.38396 0.3865
37 1 0.390775 0.389301 0.389369
38 3 0.393265 0.395804 0.397875
39 3 0.401779 0.400165 0.401037
40 1 0.404086 0.40711 0.409161
41 1 0.41336 0.411366 0.413032
42 1 0.415814 0.419068 0.420332
43 2 0.424995 0.423104 0.424456
44 3 0.427417 0.430894 0.431718
45 1 0.436678 0.434639 0.436385
46 1 0.439403 0.442732 0.443299
47 3 0.448587 0.445816 0.448425
48 1 0.451574 0.45446 0.454593
49 3 0.460207 0.457209 0.460867
50 3 0.463439 0.46576 0.465493
51 2 0.471605 0.468584 0.472265
52 3 0.475591 0.477967 0.476564
53 2 0.48294 0.480741 0.48414
54 3 0.487537 0.490005 0.487316
55 2 0.493809 0.492937 0.495954
56 1 0.499742 0.501598 0.498667
57 1 0.505404 0.504735 0.507357
58 2 0.51097 0.513793 0.51024
59 2 0.516574 0.516894 0.519098
60 3 0.522743 0.525492 0.521712
61 3 0.527049 0.527975 0.530817
62 3 0.533789 0.535626 0.532482
63 2 0.538041 0.539698 0.541753
64 3 0.546127 0.546443 0.544103
65 1 0.549228 0.55152 0.553126
66 3 0.558151 0.557013 0.555589
67 1 0.560843 0.563131 0.564078
68 3 0.570091 0.568124 0.567084
69 1 0.572314 0.574965 0.575019
70 2 0.581277 0.579729 0.578437
71 1 0.583386 0.586586 0.586455
72 1 0.592652 0.590418 0.590057
73 2 0.594703 0.598162 0.597231
74 2 0.603858 0.600964 0.601577
75 2 0.606049 0.609561 0.607613
76 3 0.615093 0.612137 0.612768
77 1 0.617586 0.620739 0.618156
78 3 0.626175 0.622479 0.624203
79 1 0.628934 0.631438 0.629247
80 2 0.637502 0.633329 0.635062
81 1 0.640402 0.642359 0.639338
82 1 0.648143 0.643846 0.64615
83 3 0.650871 0.65328 0.649853
84 1 0.657985 0.654723 0.657264
85 3 0.661641 0.663828 0.660188
86 1 0.668026 0.665319 0.668068
87 1 0.6724 0.674418 0.670042
88 3 0.678179 0.675918 0.678183
89 1 0.682435 0.68502 0.679833
90 3 0.688079 0.686466 0.688093
91 1 0.692436 0.695283 0.68967
92 3 0.6976 0.696365 0.698141
93 2 0.70247 0.704802 0.699539
94 2 0.707253 0.706245 0.708195
95 3 0.712351 0.714855 0.709069
96 3 0.71664 0.716278 0.717764
97 2 0.72214 0.72419 0.718235
98 1 0.725619 0.725716 0.727127
99 3 0.731678 0.733416 0.727423
100 1 0.735515 0.735071 0.736244
ITEM: TIMESTEP
100
ITEM: NUMBER OF ATOMS
100
ITEM: BOX BOUNDS ff ff ff
0.0000000000000000e+00 1.5850000000000000e+02
0.0000000000000000e+00 1.5850000000000000e+02
0.0000000000000000e+00 1.5850000000000000e+02
ITEM: ATOMS id type xs ys zs
1 2 0.23143 0.232787 0.232723
2 3 0.237094 0.233023 0.240524
3 1 0.240633 0.241956 0.241527
4 1 0.246504 0.242421 0.249173
5 2 0.249753 0.251438 0.250308
6 1 0.255409 0.252007 0.25815
7 1 0.259051 0.260948 0.259195
8 3 0.264507 0.261578 0.267209
9 1 0.268418 0.270415 0.268387
10 2 0.273701 0.270804 0.276557
11 3 0.277726 0.279567 0.277674
12 3 0.282719 0.280257 0.286057
13 2 0.287259 0.288867 0.286949
14 3 0.292149 0.289867 0.295431
15 2 0.296814 0.298418 0.296365
16 3 0.301403 0.299163 0.304922
17 2 0.306087 0.307708 0.305767
18 3 0.310596 0.308767 0.314382
19 2 0.315914 0.316959 0.315281
20 2 0.319907 0.318252 0.324162
21 3 0.325635 0.326224 0.324677
22 3 0.329218 0.327904 0.333546
23 2 0.335496 0.335426 0.333959
24 1 0.338464 0.337848 0.34296
25 1 0.345317 0.344956 0.343399
26 2 0.347752 0.347681 0.352544
27 1 0.355069 0.354218 0.352995
28 3 0.357158 0.357542 0.362082
29 3 0.364683 0.363703 0.362617
30 2 0.366721 0.367385 0.371569
31 3 0.374596 0.373245 0.372303
32 3 0.376106 0.377564 0.380949
33 2 0.384498 0.382663 0.382001
34 2 0.385418 0.387688 0.390423
35 1 0.394239 0.39208 0.391885
36 1 0.39516 0.397747 0.399911
37 1 0.404173 0.401469 0.401706
38 3 0.404853 0.407756 0.409382
39 3 0.413808 0.410823 0.411555
40 1 0.414378 0.417796 0.418637
41 1 0.423498 0.420554 0.421315
42 1 0.424156 0.427925 0.42805
43 2 0.433215 0.430185 0.431365
44 3 0.433916 0.438066 0.437463
45 1 0.442785 0.439622 0.441692
46 1 0.443886 0.448045 0.446934
47 3 0.45243 0.449238 0.451871
48 1 0.453996 0.458064 0.456242
49 3 0.462215 0.458886 0.461813
50 3 0.463885 0.467798 0.465487
51 2 0.471587 0.468608 0.471741
52 3 0.473928 0.477671 0.475261
53 2 0.481344 0.478372 0.481881
54 3 0.483917 0.487578 0.48461
55 2 0.490682 0.488151 0.491775
56 1 0.494186 0.497237 0.493878
57 1 0.50005 0.497964 0.501884
58 2 0.504486 0.506727 0.503532
59 2 0.509229 0.507785 0.512178
60 3 0.514451 0.51616 0.513326
61 3 0.518481 0.517407 0.522044
62 3 0.524186 0.525404 0.522412
63 2 0.528158 0.527583 0.5312
64 3 0.534367 0.535345 0.53191
65 1 0.537642 0.537624 0.541013
66 3 0.544343 0.544902 0.54157
67 1 0.547086 0.547486 0.550681
68 3 0.554463 0.554035 0.551359
69 1 0.556435 0.557597 0.560352
70 2 0.564537 0.56337 0.560946
71 1 0.565806 0.567713 0.569647
72 1 0.574074 0.573009 0.570535
73 2 0.575319 0.577792 0.579075
74 2 0.584018 0.582332 0.580075
75 2 0.584903 0.587443 0.588423
76 3 0.593724 0.591475 0.58991
77 1 0.594425 0.597248 0.597885
78 3 0.603328 0.601152 0.599494
79 1 0.603851 0.607294 0.607149
80 2 0.612961 0.610323 0.609245
81 1 0.613446 0.617132 0.616399
82 1 0.622561 0.619535 0.619001
83 3 0.622966 0.626825 0.625446
84 1 0.632055 0.62905 0.628304
85 3 0.632472 0.636445 0.63477
86 1 0.641517 0.638445 0.637818
87 1 0.641742 0.645717 0.644291
88 3 0.650815 0.647568 0.647252
89 1 0.651185 0.655091 0.653416
90 3 0.660173 0.656644 0.656745
91 1 0.660791 0.664816 0.662035
92 3 0.669576 0.665849 0.666194
93 2 0.670058 0.67412 0.67131
94 2 0.678753 0.675138 0.675535
95 3 0.679217 0.683514 0.680491
96 3 0.687964 0.684706 0.684359
97 2 0.688289 0.692891 0.689594
98 1 0.696967 0.693767 0.693923
99 3 0.697384 0.702126 0.698781
100 1 0.705936 0.70304 0.703177
ITEM: TIMESTEP
200
ITEM: NUMBER OF ATOMS
100
ITEM: BOX BOUNDS ff ff ff
0.0000000000000000e+00 1.5850000000000000e+02
0.0000000000000000e+00 1.5850000000000000e+02
0.0000000000000000e+00 1.5850000000000000e+02
ITEM: ATOMS id type xs ys zs
1 2 0.242238 0.241454 0.241087
2 3 0.244509 0.243863 0.250161
3 1 0.251484 0.250542 0.250066
4 1 0.253693 0.253058 0.259123
5 2 0.26069 0.25972 0.259067
6 1 0.262821 0.262297 0.268125
7 1 0.26993 0.268831 0.268067
8 3 0.271937 0.271521 0.277128
9 1 0.27907 0.27804 0.277091
10 2 0.28099 0.280823 0.28614
11 3 0.288219 0.287234 0.286145
12 3 0.289985 0.290139 0.295184
13 2 0.29741 0.296329 0.295243
14 3 0.29902 0.299398 0.304261
15 2 0.306636 0.305347 0.304364
16 3 0.308067 0.308711 0.313315
17 2 0.315835 0.314475 0.313503
18 3 0.317094 0.31803 0.322405
19 2 0.325047 0.323523 0.32265
20 2 0.326121 0.32734 0.331471
21 3 0.334271 0.332538 0.331854
22 3 0.33521 0.336648 0.340558
23 2 0.343573 0.341489 0.341079
24 1 0.344277 0.345968 0.349632
25 1 0.352804 0.350486 0.350301
26 2 0.353335 0.355409 0.358619
27 1 0.36205 0.359521 0.359526
28 3 0.36242 0.364794 0.36762
29 3 0.37128 0.368506 0.368771
30 2 0.371505 0.374141 0.376631
31 3 0.380466 0.377523 0.378064
32 3 0.380622 0.383593 0.385582
33 2 0.389675 0.386535 0.387318
34 2 0.389765 0.393026 0.3945
35 1 0.39887 0.395528 0.396626
36 1 0.398948 0.402448 0.403404
37 1 0.408047 0.404542 0.405975
38 3 0.408164 0.411855 0.41232
39 3 0.417202 0.413596 0.415315
40 1 0.417378 0.421291 0.421196
41 1 0.426323 0.422658 0.424664
42 1 0.426638 0.43068 0.430082
43 2 0.435391 0.431704 0.434101
44 3 0.435927 0.440046 0.438989
45 1 0.444465 0.44078 0.443503
46 1 0.445261 0.449406 0.447827
47 3 0.453517 0.449905 0.452878
48 1 0.454619 0.458729 0.456709
49 3 0.462552 0.459046 0.462256
50 3 0.463978 0.467994 0.465628
51 2 0.471544 0.468147 0.471663
52 3 0.473376 0.477218 0.474517
53 2 0.480511 0.47733 0.481074
54 3 0.482815 0.486436 0.483434
55 2 0.489479 0.486528 0.490457
56 1 0.492236 0.49561 0.492376
57 1 0.498438 0.495761 0.499816
58 2 0.501699 0.504754 0.501346
59 2 0.507388 0.504993 0.509185
60 3 0.511136 0.513856 0.510379
61 3 0.516291 0.514267 0.518544
62 3 0.520544 0.522939 0.519352
63 2 0.525202 0.523616 0.527802
64 3 0.529999 0.532007 0.528291
65 1 0.534195 0.532966 0.536963
66 3 0.539437 0.541095 0.537295
67 1 0.543146 0.542348 0.546158
68 3 0.548816 0.550189 0.546343
69 1 0.552081 0.551734 0.555316
70 2 0.558223 0.559216 0.555405
71 1 0.561091 0.561137 0.564455
72 1 0.567655 0.568255 0.564485
73 2 0.570114 0.570494 0.573575
74 2 0.577053 0.577247 0.573595
75 2 0.579143 0.579858 0.582675
76 3 0.586392 0.586259 0.582728
77 1 0.588158 0.589246 0.591766
78 3 0.595718 0.595294 0.591846
79 1 0.59725 0.598572 0.600821
80 2 0.605035 0.604309 0.600978
81 1 0.606366 0.607887 0.609869
82 1 0.614358 0.613329 0.610097
83 3 0.61547 0.617221 0.618872
84 1 0.623638 0.622389 0.619203
85 3 0.624523 0.626571 0.627872
86 1 0.63287 0.631427 0.62836
87 1 0.633576 0.635898 0.636897
88 3 0.642071 0.640479 0.637497
89 1 0.642667 0.645197 0.645909
90 3 0.651257 0.649556 0.646603
91 1 0.65181 0.654404 0.654946
92 3 0.660448 0.658679 0.655699
93 2 0.660891 0.663673 0.663962
94 2 0.669574 0.667813 0.664848
95 3 0.669952 0.672849 0.673067
96 3 0.678711 0.676837 0.674054
97 2 0.679029 0.681963 0.682228
98 1 0.687813 0.685843 0.683248
99 3 0.68815 0.690973 0.691414
100 1 0.696961 0.694773 0.692496
ITEM: TIMESTEP
300
ITEM: NUMBER OF ATOMS
100
ITEM: BOX BOUNDS ff ff ff
0.0000000000000000e+00 1.5850000000000000e+02
0.0000000000000000e+00 1.5850000000000000e+02
0.0000000000000000e+00 1.5850000000000000e+02
ITEM: ATOMS id type xs ys zs
1 2 0.243698 0.241712 0.242059
2 3 0.2447 0.24572 0.250784
3 1 0.252927 0.250761 0.251093
4 1 0.253901 0.25481 0.259803
5 2 0.262138 0.259836 0.260126
6 1 0.263062 0.263958 0.268807
7 1 0.271322 0.268946 0.269159
8 3 0.272175 0.273166 0.277801
9 1 0.280474 0.278085 0.278199
10 2 0.281251 0.28242 0.286791
11 3 0.289613 0.287226 0.287253
12 3 0.29031 0.291687 0.295787
13 2 0.298752 0.296344 0.296334
14 3 0.299365 0.300951 0.304799
15 2 0.307894 0.305434 0.305443
16 3 0.30842 0.310218 0.313815
17 2 0.317041 0.314505 0.314572
18 3 0.317471 0.319489 0.322833
19 2 0.326187 0.323553 0.323727
20 2 0.326528 0.328757 0.331856
21 3 0.33534 0.332572 0.332904
22 3 0.3356 0.338019 0.340873
23 2 0.344498 0.341573 0.342094
24 1 0.344678 0.347291 0.349877
25 1 0.353651 0.350576 0.351294
26 2 0.353766 0.356582 0.358858
27 1 0.362802 0.359581 0.360498
28 3 0.362864 0.365884 0.367818
29 3 0.371939 0.368588 0.369714
30 2 0.371966 0.375194 0.376763
31 3 0.381066 0.3776 0.378941
32 3 0.381089 0.38451 0.385686
33 2 0.390185 0.386613 0.388173
34 2 0.390226 0.393833 0.394594
35 1 0.399288 0.395638 0.397418
36 1 0.399382 0.403154 0.403488
37 1 0.408379 0.404664 0.406672
38 3 0.408562 0.412466 0.412368
39 3 0.417451 0.4137 0.415935
40 1 0.417754 0.421771 0.421239
41 1 0.426508 0.422746 0.425209
42 1 0.426968 0.431061 0.430109
43 2 0.435546 0.431799 0.434496
44 3 0.436201 0.440333 0.438981
45 1 0.444565 0.440866 0.443791
46 1 0.445456 0.449588 0.447852
47 3 0.453572 0.449942 0.453085
48 1 0.454733 0.458818 0.456725
49 3 0.462564 0.459033 0.462381
50 3 0.464025 0.468018 0.465607
51 2 0.47154 0.46813 0.47168
52 3 0.47333 0.477196 0.474506
53 2 0.480503 0.477246 0.48098
54 3 0.482645 0.486348 0.483415
55 2 0.489456 0.486384 0.49027
56 1 0.491973 0.495481 0.492334
57 1 0.498401 0.495539 0.499548
58 2 0.501305 0.504593 0.501267
59 2 0.507338 0.504716 0.508813
60 3 0.51064 0.513689 0.510214
61 3 0.516273 0.51391 0.518056
62 3 0.519967 0.522766 0.51915
63 2 0.52521 0.523142 0.527257
64 3 0.529306 0.531853 0.528096
65 1 0.534155 0.532394 0.536435
66 3 0.538639 0.54093 0.537057
67 1 0.543101 0.54166 0.545595
68 3 0.547964 0.549997 0.546035
69 1 0.552058 0.550934 0.554736
70 2 0.557288 0.559052 0.555023
71 1 0.561035 0.560205 0.563853
72 1 0.566614 0.56809 0.564025
73 2 0.570032 0.569473 0.572955
74 2 0.575931 0.577123 0.57304
75 2 0.579038 0.578742 0.582042
76 3 0.585232 0.586155 0.582067
77 1 0.588052 0.58801 0.591117
78 3 0.59452 0.595183 0.591105
79 1 0.597086 0.597271 0.600181
80 2 0.603805 0.60421 0.600146
81 1 0.606136 0.606524 0.609229
82 1 0.613073 0.613244 0.609193
83 3 0.615188 0.615781 0.618269
84 1 0.622314 0.622301 0.618243
85 3 0.624236 0.625046 0.6273
86 1 0.631529 0.631377 0.627297
87 1 0.633283 0.634304 0.636331
88 3 0.640722 0.640462 0.636361
89 1 0.642333 0.643545 0.645369
90 3 0.649895 0.649551 0.645439
91 1 0.651384 0.652765 0.654422
92 3 0.659049 0.658637 0.654538
93 2 0.660442 0.661946 0.663501
94 2 0.668194 0.667699 0.663663
95 3 0.669525 0.67107 0.672613
96 3 0.677351 0.676718 0.672814
97 2 0.678643 0.680118 0.681757
98 1 0.686525 0.685687 0.681988
99 3 0.687802 0.689098 0.690929
100 1 0.695715 0.694622 0.691173
ITEM: TIMESTEP
400
ITEM: NUMBER OF ATOMS
100
ITEM: BOX BOUNDS ff ff ff
0.0000000000000000e+00 1.5850000000000000e+02
0.0000000000000000e+00 1.5850000000000000e+02
0.0000000000000000e+00 1.5850000000000000e+02
ITEM: ATOMS id type xs ys zs
1 2 0.244457 0.241137 0.242819
2 3 0.24458 0.24719 0.250337
3 1 0.253626 0.250156 0.251938
4 1 0.253746 0.25624 0.259432
5 2 0.262793 0.259203 0.261031
6 1 0.262903 0.26535 0.268474
7 1 0.271953 0.26829 0.270096
8 3 0.272046 0.274504 0.277483
9 1 0.281104 0.277391 0.279162
10 2 0.281171 0.283685 0.286481
11 3 0.290235 0.28651 0.288228
12 3 0.290278 0.292899 0.295464
13 2 0.29935 0.295646 0.297297
14 3 0.299368 0.302129 0.30445
15 2 0.308447 0.304775 0.306387
16 3 0.308453 0.311364 0.313442
17 2 0.317543 0.313883 0.315496
18 3 0.317543 0.320586 0.322444
19 2 0.32664 0.322957 0.324638
20 2 0.326641 0.329796 0.331452
21 3 0.33574 0.332021 0.333787
22 3 0.335745 0.339015 0.340441
23 2 0.344836 0.341087 0.342945
24 1 0.344846 0.348233 0.349437
25 1 0.35392 0.350138 0.352127
26 2 0.353953 0.357449 0.358432
27 1 0.363002 0.359189 0.361313
28 3 0.363069 0.366673 0.36741
29 3 0.372081 0.36824 0.370497
30 2 0.372201 0.375902 0.376369
31 3 0.381165 0.377298 0.379673
32 3 0.381345 0.385138 0.385303
33 2 0.390241 0.386365 0.388849
34 2 0.390497 0.394373 0.394236
35 1 0.399308 0.39543 0.398038
36 1 0.399654 0.403603 0.403166
37 1 0.408366 0.404503 0.407229
38 3 0.408819 0.412836 0.412084
39 3 0.417411 0.413584 0.416422
40 1 0.417993 0.422065 0.420999
41 1 0.42645 0.422668 0.425618
42 1 0.427186 0.431285 0.42991
43 2 0.435489 0.431751 0.434814
44 3 0.436393 0.440488 0.438822
45 1 0.444519 0.440832 0.444024
46 1 0.445603 0.449675 0.447745
47 3 0.453533 0.449917 0.453246
48 1 0.454818 0.458852 0.456673
49 3 0.462539 0.459012 0.462467
50 3 0.464044 0.468019 0.4656
51 2 0.471544 0.468114 0.47168
52 3 0.473281 0.477173 0.47453
53 2 0.480545 0.477224 0.480891
54 3 0.482518 0.486316 0.483472
55 2 0.489533 0.48634 0.490106
56 1 0.491755 0.495444 0.49243
57 1 0.498518 0.495461 0.49932
58 2 0.501003 0.504559 0.501385
59 2 0.507514 0.504594 0.508514
60 3 0.510261 0.51367 0.510331
61 3 0.51651 0.513748 0.51769
62 3 0.519509 0.522785 0.519283
63 2 0.525491 0.522916 0.52686
64 3 0.528747 0.531899 0.528248
65 1 0.534473 0.532093 0.536019
66 3 0.537999 0.541001 0.537212
67 1 0.543475 0.541272 0.545159
68 3 0.547266 0.550093 0.546171
69 1 0.552488 0.550457 0.554283
70 2 0.55653 0.559184 0.555134
71 1 0.561494 0.559652 0.563401
72 1 0.565775 0.568276 0.564114
73 2 0.570501 0.568854 0.572513
74 2 0.575022 0.577365 0.573093
75 2 0.579538 0.57805 0.581599
76 3 0.584288 0.586441 0.582067
77 1 0.588595 0.587239 0.590671
78 3 0.593546 0.595518 0.591048
79 1 0.597645 0.596437 0.59974
80 2 0.602777 0.604608 0.600043
81 1 0.606686 0.605641 0.60881
82 1 0.611989 0.613705 0.609048
83 3 0.615733 0.614843 0.617873
84 1 0.621194 0.622802 0.618061
85 3 0.624792 0.624035 0.626934
86 1 0.630384 0.631903 0.627088
87 1 0.63384 0.633227 0.636004
88 3 0.639544 0.641015 0.636134
89 1 0.642876 0.642415 0.645086
90 3 0.648691 0.65012 0.645202
91 1 0.651926 0.651575 0.65418
92 3 0.657848 0.659198 0.654285
93 2 0.66101 0.660691 0.663283
94 2 0.667025 0.668241 0.663382
95 3 0.670134 0.669761 0.672394
96 3 0.676224 0.677251 0.672487
97 2 0.679301 0.678786 0.681507
98 1 0.685446 0.68623 0.681596
99 3 0.688513 0.68777 0.690618
100 1 0.694694 0.695184 0.6907
ITEM: TIMESTEP
500
ITEM: NUMBER OF ATOMS
100
ITEM: BOX BOUNDS ff ff ff
0.0000000000000000e+00 1.5850000000000000e+02
0.0000000000000000e+00 1.5850000000000000e+02
0.0000000000000000e+00 1.5850000000000000e+02
ITEM: ATOMS id type xs ys zs
1 2 0.244611 0.240644 0.243347
2 3 0.244653 0.247894 0.249721
3 1 0.25372 0.249671 0.252518
4 1 0.253772 0.256952 0.258855
5 2 0.262842 0.258727 0.26164
6 1 0.262915 0.266057 0.267921
7 1 0.271986 0.267811 0.270717
8 3 0.272071 0.275182 0.276948
9 1 0.281135 0.2769 0.279791
10 2 0.281218 0.284315 0.28597
11 3 0.290267 0.286001 0.288874
12 3 0.290342 0.29348 0.294977
13 2 0.299374 0.295141 0.297948
14 3 0.299443 0.30269 0.303964
15 2 0.308458 0.304301 0.307016
16 3 0.308542 0.311909 0.312956
17 2 0.317537 0.313432 0.316108
18 3 0.317651 0.3211 0.321971
19 2 0.326625 0.322527 0.325228
20 2 0.326775 0.330273 0.330986
21 3 0.335723 0.331617 0.334348
22 3 0.335904 0.339456 0.339977
23 2 0.344813 0.340723 0.343469
24 1 0.345015 0.348653 0.34897
25 1 0.353874 0.349826 0.35262
26 2 0.35411 0.357844 0.357991
27 1 0.362915 0.358912 0.361799
28 3 0.363213 0.36703 0.367015
29 3 0.371968 0.367996 0.370965
30 2 0.372351 0.376222 0.376001
31 3 0.38105 0.377088 0.380094
32 3 0.381517 0.385417 0.384951
33 2 0.390141 0.386182 0.38922
34 2 0.390679 0.394604 0.393907
35 1 0.39921 0.395274 0.398374
36 1 0.399821 0.403787 0.402886
37 1 0.408254 0.404373 0.407547
38 3 0.408959 0.41298 0.41186
39 3 0.417294 0.413486 0.416703
40 1 0.418121 0.422185 0.420806
41 1 0.42635 0.422603 0.425835
42 1 0.42731 0.431381 0.429736
43 2 0.435412 0.431707 0.434973
44 3 0.436503 0.440551 0.438685
45 1 0.444458 0.440794 0.444149
46 1 0.445683 0.4497 0.447666
47 3 0.453485 0.449881 0.453348
48 1 0.454861 0.458849 0.456644
49 3 0.462515 0.45899 0.462525
50 3 0.464055 0.468012 0.465592
51 2 0.471554 0.468116 0.471671
52 3 0.47326 0.477175 0.474536
53 2 0.480582 0.477237 0.480827
54 3 0.48245 0.486317 0.48352
55 2 0.489591 0.486343 0.490017
56 1 0.491635 0.495436 0.492531
57 1 0.498614 0.495445 0.499201
58 2 0.500844 0.504547 0.501517
59 2 0.507669 0.504565 0.508344
60 3 0.510068 0.51367 0.510471
61 3 0.516716 0.513708 0.517472
62 3 0.519265 0.522806 0.519445
63 2 0.52572 0.522862 0.526623
64 3 0.528436 0.531943 0.528448
65 1 0.534722 0.532014 0.535774
66 3 0.537643 0.541063 0.537435
67 1 0.543777 0.541153 0.544889
68 3 0.546896 0.550164 0.546389
69 1 0.552853 0.550295 0.553984
70 2 0.55613 0.559271 0.555352
71 1 0.561887 0.55946 0.563098
72 1 0.565317 0.568397 0.564345
73 2 0.570899 0.56864 0.572217
74 2 0.574514 0.577521 0.57333
75 2 0.579962 0.577809 0.581294
76 3 0.583763 0.586627 0.582283
77 1 0.589069 0.586964 0.59034
78 3 0.593007 0.595732 0.591242
79 1 0.598148 0.596132 0.599402
80 2 0.602187 0.604859 0.600244
81 1 0.607182 0.605315 0.608491
82 1 0.611337 0.613994 0.609268
83 3 0.616233 0.614489 0.617573
84 1 0.620514 0.623112 0.618284
85 3 0.625324 0.623642 0.626635
86 1 0.629701 0.632219 0.6273
87 1 0.634406 0.632791 0.635709
88 3 0.63885 0.641335 0.636348
89 1 0.643452 0.641944 0.644811
90 3 0.647974 0.650451 0.645425
91 1 0.652509 0.651077 0.653923
92 3 0.657129 0.659532 0.654504
93 2 0.661625 0.660163 0.663022
94 2 0.666335 0.66857 0.663572
95 3 0.670792 0.669211 0.67211
96 3 0.675564 0.677586 0.672638
97 2 0.679984 0.67824 0.681194
98 1 0.684797 0.686592 0.681706
99 3 0.689201 0.687254 0.690271
100 1 0.69404 0.69559 0.69077
ITEM: TIMESTEP
600
ITEM: NUMBER OF ATOMS
100
ITEM: BOX BOUNDS ff ff ff
0.0000000000000000e+00 1.5850000000000000e+02
0.0000000000000000e+00 1.5850000000000000e+02
0.0000000000000000e+00 1.5850000000000000e+02
ITEM: ATOMS id type xs ys zs
1 2 0.244566 0.240405 0.24365
2 3 0.244745 0.24817 0.249381
3 1 0.253685 0.249456 0.252787
4 1 0.253869 0.257233 0.258502
5 2 0.262807 0.258514 0.261914
6 1 0.262998 0.266317 0.267594
7 1 0.271931 0.267594 0.271021
8 3 0.272128 0.275428 0.276657
9 1 0.281054 0.276694 0.280108
10 2 0.281263 0.284568 0.285688
11 3 0.290176 0.285814 0.289179
12 3 0.290394 0.29373 0.294699
13 2 0.299289 0.294944 0.298247
14 3 0.299519 0.302905 0.303701
15 2 0.308391 0.30408 0.307319
16 3 0.308639 0.312089 0.312704
17 2 0.317485 0.313212 0.316403
18 3 0.317757 0.321273 0.321706
19 2 0.326569 0.322341 0.3255
20 2 0.326868 0.330457 0.330718
21 3 0.335644 0.331461 0.334612
22 3 0.335981 0.339635 0.339735
23 2 0.344715 0.340572 0.343738
24 1 0.345094 0.34881 0.348755
25 1 0.353782 0.349679 0.352871
26 2 0.354211 0.357985 0.357772
27 1 0.362848 0.358785 0.362009
28 3 0.363333 0.36716 0.366784
29 3 0.371914 0.367889 0.371146
30 2 0.372462 0.376335 0.375787
31 3 0.380979 0.376995 0.380282
32 3 0.381598 0.385513 0.384781
33 2 0.390045 0.386104 0.389415
34 2 0.390741 0.394692 0.393767
35 1 0.399111 0.395214 0.398547
36 1 0.399892 0.403872 0.402744
37 1 0.408177 0.404326 0.407677
38 3 0.409048 0.413049 0.411718
39 3 0.417241 0.41344 0.416808
40 1 0.418209 0.422225 0.420689
41 1 0.426302 0.422553 0.425941
42 1 0.427374 0.431395 0.429663
43 2 0.435359 0.431666 0.43508
44 3 0.43654 0.440561 0.43864
45 1 0.444412 0.440778 0.444222
46 1 0.44571 0.44972 0.44762
47 3 0.453464 0.449888 0.453367
48 1 0.454884 0.458871 0.456603
49 3 0.462514 0.458998 0.462515
50 3 0.464059 0.468017 0.46559
51 2 0.471558 0.46811 0.471667
52 3 0.473234 0.477159 0.474582
53 2 0.480601 0.477222 0.480819
54 3 0.482412 0.486295 0.483576
55 2 0.489644 0.486338 0.489969
56 1 0.491594 0.495428 0.492568
57 1 0.498687 0.495457 0.499115
58 2 0.500779 0.504558 0.50156
59 2 0.507729 0.50458 0.508259
60 3 0.509962 0.513686 0.510557
61 3 0.516773 0.513708 0.517398
62 3 0.51915 0.522813 0.51955
63 2 0.525819 0.522841 0.526529
64 3 0.52834 0.531939 0.528539
65 1 0.534871 0.531979 0.535647
66 3 0.537531 0.541066 0.537527
67 1 0.543925 0.541122 0.544759
68 3 0.546725 0.550192 0.546514
69 1 0.552985 0.550269 0.553862
70 2 0.555921 0.559318 0.555498
71 1 0.562055 0.559419 0.562952
72 1 0.565123 0.568443 0.564478
73 2 0.571132 0.568571 0.572032
74 2 0.574324 0.577569 0.573456
75 2 0.580211 0.577729 0.581105
76 3 0.58352 0.586699 0.582437
77 1 0.58929 0.586889 0.590174
78 3 0.592713 0.595828 0.591423
79 1 0.598371 0.59605 0.59924
80 2 0.601898 0.604959 0.600415
81 1 0.607449 0.60521 0.608308
82 1 0.611072 0.614088 0.60942
83 3 0.61652 0.614369 0.617383
84 1 0.62023 0.623218 0.618443
85 3 0.625585 0.623523 0.626469
86 1 0.62938 0.632341 0.627482
87 1 0.634655 0.632667 0.63556
88 3 0.638527 0.641455 0.636534
89 1 0.643735 0.641794 0.644654
90 3 0.64768 0.650553 0.645596
91 1 0.652832 0.650901 0.653752
92 3 0.656843 0.659633 0.654666
93 2 0.661958 0.659983 0.662846
94 2 0.666029 0.66869 0.663736
95 3 0.671124 0.669039 0.671928
96 3 0.675244 0.677725 0.672795
97 2 0.680327 0.678074 0.680994
98 1 0.684484 0.686744 0.681845
99 3 0.689563 0.687091 0.690047
100 1 0.693736 0.695755 0.690886
ITEM: TIMESTEP
700
ITEM: NUMBER OF ATOMS
100
ITEM: BOX BOUNDS ff ff ff
0.0000000000000000e+00 1.5850000000000000e+02
0.0000000000000000e+00 1.5850000000000000e+02
0.0000000000000000e+00 1.5850000000000000e+02
ITEM: ATOMS id type xs ys zs
1 2 0.244522 0.240259 0.243852
2 3 0.244842 0.248328 0.249137
3 1 0.253627 0.249312 0.252989
4 1 0.253946 0.257397 0.258262
5 2 0.262751 0.258379 0.262119
6 1 0.263069 0.266487 0.267361
7 1 0.271863 0.267466 0.271231
8 3 0.272196 0.275592 0.276427
9 1 0.280981 0.276567 0.280322
10 2 0.281325 0.28472 0.285471
11 3 0.290103 0.285684 0.289396
12 3 0.290457 0.293877 0.294493
13 2 0.299212 0.294815 0.298466
14 3 0.299585 0.303037 0.303505
15 2 0.308316 0.303949 0.307533
16 3 0.308713 0.312214 0.312516
17 2 0.317409 0.313084 0.316606
18 3 0.31783 0.321388 0.321526
19 2 0.3265 0.322223 0.325701
20 2 0.326946 0.330561 0.330538
21 3 0.335576 0.331347 0.334802
22 3 0.336057 0.339733 0.339561
23 2 0.344649 0.340476 0.343914
24 1 0.345172 0.348903 0.348586
25 1 0.353716 0.349589 0.353035
26 2 0.35429 0.358072 0.357614
27 1 0.36278 0.358704 0.362159
28 3 0.363409 0.367241 0.366632
29 3 0.371846 0.367819 0.371288
30 2 0.372534 0.376407 0.375647
31 3 0.380913 0.376937 0.380412
32 3 0.381666 0.385577 0.384653
33 2 0.389985 0.386053 0.389535
34 2 0.390805 0.394744 0.393651
35 1 0.399051 0.395171 0.398653
36 1 0.399952 0.403916 0.402644
37 1 0.408121 0.404291 0.407771
38 3 0.409101 0.413085 0.411633
39 3 0.417191 0.413411 0.41689
40 1 0.418256 0.422251 0.420621
41 1 0.426259 0.422529 0.42601
42 1 0.427412 0.431413 0.429606
43 2 0.435324 0.431649 0.435134
44 3 0.436572 0.440571 0.438597
45 1 0.444388 0.440766 0.444262
46 1 0.445733 0.449726 0.447591
47 3 0.453447 0.449881 0.453393
48 1 0.454897 0.458873 0.456588
49 3 0.462505 0.458994 0.462528
50 3 0.464061 0.468017 0.465588
51 2 0.47156 0.46811 0.471666
52 3 0.473226 0.477156 0.47459
53 2 0.480616 0.477226 0.480803
54 3 0.482392 0.486292 0.483596
55 2 0.48967 0.486341 0.48994
56 1 0.491561 0.495423 0.492602
57 1 0.498725 0.49546 0.499075
58 2 0.500732 0.504555 0.501607
59 2 0.507778 0.504583 0.508207
60 3 0.509903 0.513688 0.510614
61 3 0.516836 0.51371 0.517331
62 3 0.519077 0.522813 0.519616
63 2 0.525896 0.522837 0.526452
64 3 0.528254 0.531943 0.528618
65 1 0.53496 0.531971 0.535562
66 3 0.537434 0.541075 0.537615
67 1 0.544028 0.541111 0.544664
68 3 0.546616 0.550206 0.546607
69 1 0.553103 0.55025 0.553756
70 2 0.555803 0.559335 0.555596
71 1 0.562184 0.559397 0.56284
72 1 0.56499 0.568468 0.564581
73 2 0.57127 0.568546 0.571913
74 2 0.574177 0.577603 0.573564
75 2 0.580358 0.577699 0.580981
76 3 0.583362 0.586738 0.582551
77 1 0.589449 0.586851 0.590046
78 3 0.592544 0.595873 0.591542
79 1 0.598535 0.596008 0.599112
80 2 0.601713 0.605009 0.600542
81 1 0.60762 0.605162 0.60818
82 1 0.610874 0.614145 0.609552
83 3 0.616698 0.614313 0.617256
84 1 0.620027 0.623277 0.618584
85 3 0.625775 0.623454 0.626339
86 1 0.629172 0.632401 0.627627
87 1 0.634853 0.632587 0.635428
88 3 0.638316 0.641513 0.636681
89 1 0.643943 0.641705 0.644523
90 3 0.64747 0.650616 0.645742
91 1 0.653051 0.650804 0.653614
92 3 0.656637 0.659695 0.654809
93 2 0.662193 0.659886 0.662703
94 2 0.665821 0.668753 0.663869
95 3 0.671363 0.668942 0.671777
96 3 0.675036 0.677799 0.672915
97 2 0.680568 0.677988 0.680839
98 1 0.684276 0.686831 0.681963
99 3 0.689799 0.687018 0.689873
100 1 0.693523 0.695851 0.690995
ITEM: TIMESTEP
800
ITEM: NUMBER OF ATOMS
100
ITEM: BOX BOUNDS ff ff ff
0.0000000000000000e+00 1.5850000000000000e+02
0.0000000000000000e+00 1.5850000000000000e+02
0.0000000000000000e+00 1.5850000000000000e+02
ITEM: ATOMS id type xs ys zs
1 2 0.244488 0.240177 0.24397
2 3 0.244899 0.248409 0.248995
3 1 0.253591 0.249241 0.25311
4 1 0.254008 0.257481 0.25812
5 2 0.262699 0.258313 0.262239
6 1 0.263125 0.266569 0.267222
7 1 0.271811 0.267399 0.271349
8 3 0.272248 0.275677 0.276297
9 1 0.280927 0.276501 0.280442
10 2 0.281377 0.284804 0.285345
11 3 0.290043 0.285619 0.289519
12 3 0.290507 0.293949 0.294374
13 2 0.299154 0.294748 0.298588
14 3 0.299635 0.303108 0.303392
15 2 0.30826 0.303884 0.307656
16 3 0.308761 0.312274 0.312404
17 2 0.317358 0.313023 0.31673
18 3 0.317882 0.321444 0.321419
19 2 0.326446 0.322159 0.325814
20 2 0.326998 0.330614 0.330438
21 3 0.335526 0.331292 0.334909
22 3 0.336112 0.339783 0.339463
23 2 0.3446 0.34042 0.344015
24 1 0.345225 0.34895 0.348491
25 1 0.353669 0.349544 0.353129
26 2 0.354339 0.358114 0.357519
27 1 0.362737 0.358665 0.362248
28 3 0.363457 0.367279 0.366545
29 3 0.371804 0.367786 0.371367
30 2 0.37258 0.376443 0.375566
31 3 0.380873 0.376906 0.380485
32 3 0.38171 0.385608 0.384579
33 2 0.389943 0.386027 0.389601
34 2 0.390845 0.394773 0.393586
35 1 0.399015 0.39515 0.398714
36 1 0.399987 0.403938 0.402587
37 1 0.408088 0.404273 0.407825
38 3 0.409133 0.413102 0.411584
39 3 0.417161 0.413396 0.416936
40 1 0.418283 0.422264 0.420579
41 1 0.426233 0.422518 0.426049
42 1 0.427436 0.431423 0.429575
43 2 0.435303 0.431639 0.435165
44 3 0.436591 0.440578 0.438573
45 1 0.444371 0.440758 0.444285
46 1 0.445747 0.449728 0.447574
47 3 0.453437 0.449876 0.453408
48 1 0.454905 0.458875 0.456579
49 3 0.4625 0.458993 0.462535
50 3 0.464063 0.468016 0.465587
51 2 0.471562 0.468109 0.471664
52 3 0.473222 0.477155 0.474597
53 2 0.480623 0.477226 0.480793
54 3 0.482382 0.48629 0.48361
55 2 0.489684 0.486343 0.489923
56 1 0.491543 0.495422 0.492623
57 1 0.498745 0.495463 0.499051
58 2 0.500706 0.504554 0.501636
59 2 0.507807 0.504584 0.508174
60 3 0.50987 0.513684 0.510647
61 3 0.516871 0.513711 0.517294
62 3 0.519038 0.522815 0.519657
63 2 0.525939 0.522838 0.526407
64 3 0.528207 0.531945 0.528663
65 1 0.53501 0.53197 0.535511
66 3 0.53738 0.541076 0.537665
67 1 0.544087 0.541107 0.544607
68 3 0.546556 0.55021 0.546662
69 1 0.553169 0.550246 0.553694
70 2 0.555735 0.559343 0.555655
71 1 0.562256 0.55939 0.562772
72 1 0.564916 0.568479 0.564644
73 2 0.571348 0.568537 0.571842
74 2 0.574096 0.577616 0.573632
75 2 0.580442 0.577687 0.580906
76 3 0.583274 0.586755 0.582622
77 1 0.589536 0.586839 0.589968
78 3 0.592446 0.595893 0.591618
79 1 0.598627 0.595991 0.599032
80 2 0.60161 0.605032 0.600623
81 1 0.607714 0.605141 0.6081