ITEM: TIMESTEP
0
ITEM: NUMBER OF ATOMS
100
ITEM: BOX BOUNDS pp pp pp
0.0000000000000000e+00 1.5850000000000000e+02
0.0000000000000000e+00 1.5850000000000000e+02
0.0000000000000000e+00 1.5850000000000000e+02
ITEM: ATOMS id type xs ys zs
1 2 0.243237 0.248193 0.247766
2 2 0.24416 0.252553 0.256255
3 3 0.253058 0.255736 0.257016
4 2 0.254376 0.260521 0.265444
5 1 0.263581 0.263002 0.266853
6 2 0.264144 0.268122 0.274986
7 3 0.273233 0.27127 0.276187
8 2 0.273289 0.276645 0.284094
9 3 0.281947 0.280969 0.28519
10 2 0.282419 0.285499 0.293758
11 2 0.29106 0.289874 0.294354
12 2 0.292099 0.294918 0.302613
13 1 0.300892 0.298804 0.302032
14 1 0.30291 0.302501 0.31069
15 1 0.311534 0.306599 0.310478
16 1 0.312673 0.311174 0.318841
17 1 0.321397 0.315339 0.319043
18 3 0.322333 0.319721 0.327588
19 2 0.330706 0.324649 0.32807
20 1 0.331226 0.329513 0.336236
21 1 0.339185 0.334983 0.337073
22 1 0.33936 0.339716 0.345589
23 1 0.347648 0.344643 0.346731
24 3 0.347377 0.349624 0.354979
25 3 0.355536 0.354785 0.355684
26 2 0.355999 0.359081 0.364154
27 2 0.364703 0.36328 0.364893
28 2 0.364669 0.369196 0.372582
29 1 0.373253 0.373536 0.37291
30 3 0.373954 0.378918 0.380845
31 1 0.382616 0.382929 0.381738
32 2 0.383057 0.387954 0.389915
33 3 0.392011 0.391514 0.390896
34 2 0.392698 0.397251 0.398708
35 1 0.401993 0.398936 0.400552
36 3 0.402603 0.404784 0.408087
37 3 0.411904 0.406858 0.410253
38 1 0.411285 0.413132 0.417426
39 2 0.420127 0.415432 0.420594
40 1 0.419285 0.422234 0.427442
41 2 0.428018 0.424073 0.431032
42 1 0.427752 0.430953 0.437759
43 3 0.436779 0.43313 0.440318
44 2 0.436956 0.440827 0.446298
45 1 0.446022 0.442958 0.448796
46 2 0.446321 0.450496 0.454801
47 1 0.455644 0.452367 0.456995
48 3 0.455792 0.459935 0.463069
49 3 0.464677 0.461708 0.465873
50 2 0.464933 0.469874 0.471044
51 1 0.47407 0.470765 0.474162
52 1 0.475119 0.479426 0.478356
53 1 0.483677 0.479409 0.482784
54 2 0.484983 0.487993 0.487131
55 2 0.493321 0.487926 0.492123
56 2 0.49402 0.496286 0.496671
57 2 0.502593 0.496875 0.501187
58 2 0.503802 0.505687 0.504838
59 3 0.511989 0.506451 0.509918
60 3 0.513141 0.515639 0.512748
61 3 0.521176 0.516061 0.517997
62 3 0.522208 0.525144 0.520992
63 3 0.53026 0.525691 0.526191
64 1 0.530923 0.534382 0.530306
65 3 0.539467 0.534893 0.534341
66 3 0.54067 0.543655 0.538437
67 1 0.549117 0.543969 0.54294
68 2 0.549635 0.552258 0.547817
69 1 0.558033 0.552256 0.552637
70 1 0.558726 0.560043 0.558065
71 1 0.567452 0.560336 0.562256
72 1 0.567325 0.567922 0.568401
73 3 0.576008 0.568282 0.573134
74 1 0.576226 0.576273 0.578477
75 1 0.58455 0.576821 0.583364
76 3 0.58434 0.584859 0.588585
77 2 0.592928 0.586269 0.592299
78 3 0.592621 0.594544 0.59741
79 2 0.601022 0.595173 0.602332
80 2 0.601135 0.602943 0.607907
81 3 0.609563 0.603494 0.612508
82 1 0.609671 0.611796 0.617208
83 3 0.617962 0.612904 0.622033
84 1 0.617868 0.621202 0.626807
85 1 0.626663 0.622778 0.630172
86 1 0.627003 0.63128 0.634596
87 3 0.635914 0.633142 0.637724
88 2 0.635795 0.641294 0.642927
89 3 0.644516 0.643248 0.646546
90 1 0.644206 0.651813 0.651079
91 1 0.652495 0.653286 0.655729
92 3 0.652678 0.661993 0.660203
93 3 0.660951 0.662599 0.66487
94 1 0.660647 0.670686 0.669986
95 2 0.668896 0.671878 0.674699
96 3 0.668083 0.679879 0.680233
97 1 0.676094 0.680774 0.685625
98 1 0.674977 0.688792 0.690959
99 3 0.682553 0.689872 0.69678
100 2 0.681345 0.697843 0.702088
ITEM: TIMESTEP
100
ITEM: NUMBER OF ATOMS
100
ITEM: BOX BOUNDS pp pp pp
0.0000000000000000e+00 1.5850000000000000e+02
0.0000000000000000e+00 1.5850000000000000e+02
0.0000000000000000e+00 1.5850000000000000e+02
ITEM: ATOMS id type xs ys zs
1 2 0.24334 0.247642 0.24743
2 2 0.244126 0.251774 0.256125
3 3 0.252912 0.255678 0.257046
4 2 0.253754 0.259923 0.265686
5 1 0.262551 0.263828 0.266511
6 2 0.263452 0.268206 0.275065
7 3 0.27226 0.272095 0.275663
8 2 0.273225 0.276629 0.28412
9 3 0.282066 0.280453 0.284596
10 2 0.283105 0.285177 0.292945
11 2 0.291944 0.289028 0.293387
12 2 0.292908 0.293869 0.301678
13 1 0.301743 0.297728 0.302157
14 1 0.30257 0.302736 0.310371
15 1 0.311381 0.306636 0.310982
16 1 0.312056 0.311729 0.31916
17 1 0.320842 0.315653 0.319859
18 3 0.321302 0.320817 0.327994
19 2 0.330068 0.324759 0.328791
20 1 0.330341 0.330126 0.336801
21 1 0.339045 0.334184 0.337714
22 1 0.339093 0.339765 0.345583
23 1 0.347756 0.343909 0.346503
24 3 0.347649 0.349684 0.354234
25 3 0.356319 0.353784 0.355298
26 2 0.356195 0.359699 0.362927
27 2 0.364972 0.36353 0.364065
28 2 0.364929 0.369427 0.371699
29 1 0.373828 0.372923 0.372989
30 3 0.373894 0.378872 0.380575
31 1 0.382915 0.381943 0.382043
32 2 0.383046 0.387943 0.389589
33 3 0.392144 0.390641 0.391276
34 2 0.392264 0.396673 0.398792
35 1 0.40138 0.399069 0.400821
36 3 0.401427 0.405182 0.40827
37 3 0.410545 0.407276 0.410628
38 1 0.410489 0.413572 0.417927
39 2 0.419553 0.415577 0.420546
40 1 0.419399 0.422141 0.427607
41 2 0.42843 0.424135 0.430326
42 1 0.428241 0.431117 0.436971
43 3 0.437262 0.433095 0.439703
44 2 0.437106 0.440451 0.445923
45 1 0.446153 0.442412 0.448588
46 2 0.446177 0.45006 0.454443
47 1 0.455269 0.451845 0.457094
48 3 0.455483 0.459666 0.46273
49 3 0.464594 0.461267 0.465472
50 2 0.465003 0.469156 0.47101
51 1 0.474107 0.470473 0.47392
52 1 0.47458 0.478386 0.479405
53 1 0.483641 0.479526 0.482495
54 2 0.484086 0.487466 0.487932
55 2 0.493091 0.488509 0.491196
56 2 0.49352 0.496529 0.496525
57 2 0.502485 0.497581 0.499923
58 2 0.50293 0.505702 0.505116
59 3 0.511872 0.506827 0.508545
60 3 0.512342 0.515086 0.513526
61 3 0.521318 0.516162 0.516932
62 3 0.521881 0.524485 0.521782
63 3 0.5308 0.525592 0.525291
64 1 0.531318 0.533929 0.530116
65 3 0.540158 0.534782 0.533874
66 3 0.540661 0.543008 0.538885
67 1 0.549337 0.543675 0.543027
68 2 0.549734 0.551786 0.548227
69 1 0.558288 0.552256 0.552653
70 1 0.558661 0.560276 0.557986
71 1 0.567109 0.560619 0.562627
72 1 0.56742 0.56862 0.568002
73 3 0.575803 0.56894 0.572764
74 1 0.576078 0.576905 0.578196
75 1 0.584405 0.577224 0.583052
76 3 0.58457 0.585246 0.588394
77 2 0.592876 0.585695 0.593267
78 3 0.592965 0.593827 0.598447
79 2 0.601342 0.594572 0.603171
80 2 0.601428 0.602848 0.608129
81 3 0.609873 0.603862 0.61268
82 1 0.609922 0.61229 0.617373
83 3 0.618452 0.613457 0.621713
84 1 0.618573 0.621978 0.626228
85 1 0.627175 0.623264 0.630397
86 1 0.627308 0.631859 0.634777
87 3 0.635954 0.633275 0.638819
88 2 0.636099 0.641905 0.643133
89 3 0.64473 0.643345 0.647202
90 1 0.644712 0.651922 0.651623
91 1 0.653208 0.653402 0.655944
92 3 0.652926 0.6618 0.660681
93 3 0.661263 0.663095 0.665356
94 1 0.660734 0.671279 0.670437
95 2 0.668854 0.67249 0.675506
96 3 0.668142 0.680477 0.680885
97 1 0.676185 0.681553 0.686117
98 1 0.675415 0.689428 0.691653
99 3 0.683417 0.690472 0.696953
100 2 0.682593 0.698324 0.70251
ITEM: TIMESTEP
105
ITEM: NUMBER OF ATOMS
100
ITEM: BOX BOUNDS pp pp pp
0.0000000000000000e+00 1.5850000000000000e+02
0.0000000000000000e+00 1.5850000000000000e+02
0.0000000000000000e+00 1.5850000000000000e+02
ITEM: ATOMS id type xs ys zs
1 2 0.24334 0.247642 0.24743
2 2 0.244126 0.251774 0.256125
3 3 0.252912 0.255678 0.257046
4 2 0.253754 0.259923 0.265686
5 1 0.262551 0.263828 0.266511
6 2 0.263452 0.268206 0.275065
7 3 0.27226 0.272095 0.275663
8 2 0.273225 0.276629 0.28412
9 3 0.282066 0.280453 0.284596
10 2 0.283105 0.285177 0.292945
11 2 0.291944 0.289028 0.293387
12 2 0.292908 0.293869 0.301678
13 1 0.301743 0.297728 0.302157
14 1 0.30257 0.302736 0.310371
15 1 0.311381 0.306636 0.310982
16 1 0.312056 0.311729 0.31916
17 1 0.320842 0.315653 0.319859
18 3 0.321302 0.320817 0.327994
19 2 0.330068 0.324759 0.328791
20 1 0.330341 0.330126 0.336801
21 1 0.339045 0.334184 0.337714
22 1 0.339093 0.339765 0.345583
23 1 0.347756 0.343909 0.346503
24 3 0.347649 0.349684 0.354234
25 3 0.356319 0.353784 0.355298
26 2 0.356195 0.359699 0.362927
27 2 0.364972 0.36353 0.364065
28 2 0.364929 0.369427 0.371699
29 1 0.373828 0.372923 0.372989
30 3 0.373894 0.378872 0.380575
31 1 0.382915 0.381943 0.382043
32 2 0.383046 0.387943 0.389589
33 3 0.392144 0.390641 0.391276
34 2 0.392264 0.396673 0.398792
35 1 0.40138 0.399069 0.400821
36 3 0.401427 0.405182 0.40827
37 3 0.410545 0.407276 0.410628
38 1 0.410489 0.413572 0.417927
39 2 0.419553 0.415577 0.420546
40 1 0.419399 0.422141 0.427607
41 2 0.42843 0.424135 0.430326
42 1 0.428241 0.431117 0.436971
43 3 0.437262 0.433095 0.439703
44 2 0.437106 0.440451 0.445923
45 1 0.446153 0.442412 0.448588
46 2 0.446177 0.45006 0.454443
47 1 0.455269 0.451845 0.457094
48 3 0.455483 0.459666 0.46273
49 3 0.464594 0.461267 0.465472
50 2 0.465003 0.469156 0.47101
51 1 0.474107 0.470473 0.47392
52 1 0.47458 0.478386 0.479405
53 1 0.483641 0.479526 0.482495
54 2 0.484086 0.487466 0.487932
55 2 0.493091 0.488509 0.491196
56 2 0.49352 0.496529 0.496525
57 2 0.502485 0.497581 0.499923
58 2 0.50293 0.505702 0.505116
59 3 0.511872 0.506827 0.508545
60 3 0.512342 0.515086 0.513526
61 3 0.521318 0.516162 0.516932
62 3 0.521881 0.524485 0.521782
63 3 0.5308 0.525592 0.525291
64 1 0.531318 0.533929 0.530116
65 3 0.540158 0.534782 0.533874
66 3 0.540661 0.543008 0.538885
67 1 0.549337 0.543675 0.543027
68 2 0.549734 0.551786 0.548227
69 1 0.558288 0.552256 0.552653
70 1 0.558661 0.560276 0.557986
71 1 0.567109 0.560619 0.562627
72 1 0.56742 0.56862 0.568002
73 3 0.575803 0.56894 0.572764
74 1 0.576078 0.576905 0.578196
75 1 0.584405 0.577224 0.583052
76 3 0.58457 0.585246 0.588394
77 2 0.592876 0.585695 0.593267
78 3 0.592965 0.593827 0.598447
79 2 0.601342 0.594572 0.603171
80 2 0.601428 0.602848 0.608129
81 3 0.609873 0.603862 0.61268
82 1 0.609922 0.61229 0.617373
83 3 0.618452 0.613457 0.621713
84 1 0.618573 0.621978 0.626228
85 1 0.627175 0.623264 0.630397
86 1 0.627308 0.631859 0.634777
87 3 0.635954 0.633275 0.638819
88 2 0.636099 0.641905 0.643133
89 3 0.64473 0.643345 0.647202
90 1 0.644712 0.651922 0.651623
91 1 0.653208 0.653402 0.655944
92 3 0.652926 0.6618 0.660681
93 3 0.661263 0.663095 0.665356
94 1 0.660734 0.671279 0.670437
95 2 0.668854 0.67249 0.675506
96 3 0.668142 0.680477 0.680885
97 1 0.676185 0.681553 0.686117
98 1 0.675415 0.689428 0.691653
99 3 0.683417 0.690472 0.696953
100 2 0.682593 0.698324 0.70251
