ITEM: TIMESTEP
0
ITEM: NUMBER OF ATOMS
100
ITEM: BOX BOUNDS ff ff ff
0.0000000000000000e+00 1.5850000000000000e+02
0.0000000000000000e+00 1.5850000000000000e+02
0.0000000000000000e+00 1.5850000000000000e+02
ITEM: ATOMS id type xs ys zs
1 2 0.242805 0.248808 0.247779
2 3 0.244305 0.251918 0.256724
3 1 0.252728 0.256303 0.256912
4 1 0.254528 0.260018 0.265789
5 2 0.263504 0.263422 0.266611
6 1 0.264434 0.267652 0.275197
7 1 0.27324 0.271616 0.275904
8 3 0.273506 0.276395 0.284186
9 1 0.281833 0.2814 0.284923
10 2 0.282688 0.285228 0.293803
11 3 0.290954 0.290321 0.294096
12 3 0.292417 0.294451 0.302762
13 2 0.300775 0.299165 0.302065
15 2 0.311557 0.306852 0.310237
14 3 0.30321 0.302062 0.310888
16 3 0.313102 0.31058 0.318927
17 2 0.321372 0.31559 0.318892
18 3 0.322784 0.31917 0.327753
19 2 0.330689 0.324844 0.327926
20 2 0.331633 0.329055 0.336402
21 3 0.33906 0.335277 0.336939
22 3 0.339594 0.339395 0.345671
23 2 0.347403 0.345135 0.346434
24 1 0.347551 0.349508 0.355029
25 1 0.355148 0.355344 0.355386
26 2 0.356057 0.359024 0.364124
27 1 0.364445 0.363853 0.364534
28 3 0.364682 0.369039 0.372708
29 3 0.372957 0.374089 0.372705
30 2 0.373889 0.378755 0.381057
31 3 0.382243 0.383429 0.381586
32 3 0.382969 0.387685 0.390303
33 2 0.391632 0.391976 0.390834
34 2 0.392545 0.396891 0.399164
35 1 0.401761 0.399362 0.400405
36 1 0.402525 0.404369 0.408517
37 1 0.411775 0.407152 0.410072
38 3 0.411308 0.412629 0.41788
39 3 0.420105 0.415776 0.420278
40 1 0.419326 0.421734 0.42787
41 1 0.428138 0.424408 0.430591
42 1 0.427943 0.430534 0.438017
43 2 0.436972 0.433414 0.439796
44 3 0.437173 0.440412 0.446578
45 1 0.446239 0.443205 0.448304
46 1 0.446553 0.450025 0.455107
47 3 0.455869 0.452471 0.456636
48 1 0.456044 0.459426 0.463428
49 3 0.464953 0.461761 0.46549
50 3 0.465039 0.469507 0.471379
51 2 0.474313 0.470897 0.473839
52 3 0.475029 0.479196 0.478737
53 2 0.483881 0.479576 0.48248
54 3 0.484809 0.48776 0.487606
55 2 0.493577 0.488106 0.49176
56 1 0.493872 0.495879 0.49728
57 1 0.502833 0.497034 0.500836
58 2 0.503519 0.505458 0.505439
59 2 0.512242 0.50673 0.509435
60 3 0.512681 0.515688 0.513226
61 3 0.521361 0.516519 0.517265
62 3 0.521768 0.525241 0.521321
63 2 0.53042 0.526316 0.525296
64 3 0.530574 0.53434 0.530677
65 1 0.539505 0.535473 0.533626
66 3 0.540165 0.543515 0.539035
67 1 0.549041 0.544415 0.542524
68 3 0.549078 0.551807 0.548667
69 1 0.557955 0.552521 0.552417
70 2 0.558254 0.559316 0.559054
71 1 0.567345 0.560538 0.562106
72 1 0.566998 0.567266 0.569167
73 2 0.576148 0.568583 0.572725
74 2 0.575909 0.575816 0.579073
75 2 0.58468 0.577233 0.582847
76 3 0.584146 0.584431 0.589139
77 1 0.592966 0.586624 0.591821
78 3 0.592337 0.594121 0.59801
79 1 0.601214 0.595441 0.601876
80 2 0.601034 0.602365 0.608487
81 1 0.609903 0.603639 0.611992
82 1 0.609651 0.611294 0.61768
83 3 0.618406 0.613158 0.621257
84 1 0.618073 0.620702 0.627123
85 3 0.627062 0.62306 0.629337
86 1 0.627146 0.630747 0.635059
87 1 0.636143 0.633519 0.637007
88 3 0.635824 0.640722 0.643451
89 1 0.644717 0.643655 0.645823
90 3 0.644 0.65136 0.651679
91 1 0.652721 0.653833 0.65485
92 3 0.652318 0.661557 0.660829
93 2 0.661085 0.663058 0.664301
94 2 0.660329 0.670214 0.67062
95 3 0.668965 0.672359 0.67419
96 3 0.667797 0.679555 0.680632
97 2 0.676306 0.681333 0.684963
98 1 0.674746 0.688463 0.69133
99 3 0.682862 0.690459 0.696044
100 1 0.681202 0.697508 0.702413
ITEM: TIMESTEP
60
ITEM: NUMBER OF ATOMS
100
ITEM: BOX BOUNDS ff ff ff
0.0000000000000000e+00 1.5850000000000000e+02
0.0000000000000000e+00 1.5850000000000000e+02
0.0000000000000000e+00 1.5850000000000000e+02
ITEM: ATOMS id type xs ys zs
1 2 0.243057 0.248461 0.247365
2 3 0.244302 0.251623 0.256405
3 1 0.252815 0.256118 0.257062
4 1 0.254093 0.25942 0.266047
5 2 0.262562 0.264026 0.266558
6 1 0.263842 0.26764 0.275416
7 1 0.272218 0.272439 0.275672
8 3 0.273543 0.276252 0.284437
9 1 0.281874 0.281126 0.284541
10 2 0.283323 0.284969 0.293277
11 3 0.291651 0.289854 0.293272
12 3 0.293158 0.293696 0.301994
13 2 0.301507 0.29854 0.301971
15 2 0.31139 0.307142 0.310745
14 3 0.302995 0.302386 0.310694
16 3 0.312785 0.311003 0.31948
17 2 0.32112 0.315862 0.319595
18 3 0.322249 0.319977 0.328248
19 2 0.330412 0.325118 0.328363
20 2 0.331209 0.329461 0.336935
21 3 0.339218 0.334829 0.33716
22 3 0.339679 0.339299 0.345707
23 2 0.347615 0.344755 0.34613
24 1 0.347801 0.349334 0.35462
25 1 0.355816 0.354664 0.355164
26 2 0.355988 0.359433 0.363546
27 1 0.364212 0.364441 0.364039
28 3 0.364618 0.369339 0.372335
29 3 0.373149 0.373816 0.372814
30 2 0.373794 0.378722 0.381087
31 3 0.382563 0.382683 0.381737
32 3 0.383163 0.387624 0.390003
33 2 0.392024 0.391308 0.39093
34 2 0.392424 0.396331 0.399155
35 1 0.401367 0.399679 0.40049
36 1 0.401625 0.404677 0.40873
37 1 0.410642 0.407657 0.410401
38 3 0.410747 0.412914 0.418479
39 3 0.419774 0.415786 0.420306
40 1 0.41972 0.421566 0.428025
41 1 0.428725 0.424385 0.429992
42 1 0.428492 0.430688 0.437282
43 2 0.437495 0.433374 0.439435
44 3 0.437232 0.440158 0.44628
45 1 0.44627 0.442654 0.448516
46 1 0.44619 0.449907 0.454864
47 3 0.455323 0.452158 0.456965
48 1 0.455564 0.45973 0.462924
49 3 0.464771 0.4616 0.465085
50 3 0.465209 0.469169 0.471054
51 2 0.4744 0.470642 0.473547
52 3 0.474816 0.478094 0.479643
53 2 0.483956 0.479503 0.482344
54 3 0.484269 0.487007 0.488381
55 2 0.493391 0.488553 0.491075
56 1 0.49362 0.496152 0.496997
57 1 0.502714 0.497765 0.499747
58 2 0.502908 0.505401 0.505622
59 2 0.511995 0.507004 0.508378
60 3 0.512174 0.514845 0.513993
61 3 0.521264 0.516615 0.516673
62 3 0.52157 0.524645 0.522027
63 2 0.530667 0.526254 0.52478
64 3 0.53091 0.534202 0.530221
65 1 0.539919 0.535501 0.533371
66 3 0.54017 0.54321 0.539151
67 1 0.549082 0.544198 0.54269
68 3 0.549271 0.551689 0.548749
69 1 0.5581 0.552409 0.552544
70 2 0.558226 0.559766 0.55876
71 1 0.567019 0.560512 0.562629
72 1 0.567035 0.567861 0.568861
73 2 0.575843 0.568829 0.572646
74 2 0.575704 0.576145 0.578917
75 2 0.584526 0.577402 0.582579
76 3 0.584233 0.58467 0.588903
77 1 0.593068 0.586124 0.592455
78 3 0.59271 0.593335 0.598841
79 1 0.601573 0.594994 0.602241
80 2 0.601215 0.60229 0.608526
81 1 0.610119 0.604139 0.611726
82 1 0.609773 0.611563 0.61786
83 3 0.618695 0.613549 0.620921
84 1 0.618392 0.621145 0.626853
85 3 0.627355 0.623282 0.629683
86 1 0.627122 0.631129 0.635282
87 1 0.636111 0.633407 0.637925
88 3 0.635868 0.641359 0.643365
89 1 0.644815 0.643598 0.646189
90 3 0.644423 0.651453 0.651764
91 1 0.65325 0.653621 0.654994
92 3 0.652592 0.661258 0.660849
93 2 0.661261 0.663362 0.664519
94 2 0.660283 0.670711 0.670694
95 3 0.668816 0.672793 0.674687
96 3 0.667651 0.67987 0.681145
97 2 0.676135 0.681891 0.685271
98 1 0.674922 0.688801 0.691899
99 3 0.683411 0.690796 0.696032
100 1 0.68222 0.697696 0.702675
ITEM: TIMESTEP
100
ITEM: NUMBER OF ATOMS
100
ITEM: BOX BOUNDS ff ff ff
0.0000000000000000e+00 1.5850000000000000e+02
0.0000000000000000e+00 1.5850000000000000e+02
0.0000000000000000e+00 1.5850000000000000e+02
ITEM: ATOMS id type xs ys zs
1 2 0.241488 0.249213 0.249481
2 3 0.244356 0.252653 0.257813
3 1 0.252502 0.25757 0.257055
4 1 0.255533 0.259555 0.266095
5 2 0.263105 0.265503 0.266138
6 1 0.264423 0.268108 0.275371
7 1 0.272615 0.273433 0.275702
8 3 0.275115 0.275563 0.284656
9 1 0.28281 0.280957 0.284412
10 2 0.284944 0.283903 0.293343
11 3 0.292803 0.289402 0.293089
12 3 0.293268 0.294217 0.301462
13 2 0.301918 0.298748 0.30168
14 3 0.302466 0.303223 0.310183
15 2 0.311 0.307821 0.310631
16 3 0.311685 0.311839 0.319733
17 2 0.320626 0.315764 0.320172
18 3 0.322151 0.319692 0.328894
19 2 0.330104 0.325883 0.327944
20 2 0.331122 0.330095 0.336845
21 3 0.338186 0.336168 0.337005
22 3 0.339106 0.338859 0.346266
23 2 0.347092 0.344421 0.346765
24 1 0.347408 0.348962 0.355562
25 1 0.355856 0.354125 0.355237
26 2 0.356461 0.358655 0.363759
27 1 0.364206 0.364133 0.364092
28 3 0.365025 0.368967 0.372367
29 3 0.373525 0.373265 0.372827
30 2 0.374976 0.377878 0.380946
31 3 0.383076 0.382608 0.381262
32 3 0.384196 0.386115 0.390218
33 2 0.392562 0.390667 0.391335
34 2 0.392387 0.39541 0.399517
35 1 0.400976 0.399559 0.400539
36 1 0.401601 0.403401 0.409568
37 1 0.410235 0.408088 0.41021
38 3 0.410464 0.413106 0.41856
39 3 0.419303 0.416562 0.419833
40 1 0.419694 0.422173 0.427903
41 1 0.429083 0.424594 0.430022
42 1 0.429713 0.429191 0.438494
43 2 0.438019 0.433536 0.439146
44 3 0.437546 0.439948 0.446387
45 1 0.446757 0.443255 0.448375
46 1 0.446645 0.449758 0.455336
47 3 0.455383 0.451569 0.457775
48 1 0.455665 0.458771 0.463973
49 3 0.464782 0.46179 0.465083
50 3 0.465172 0.468185 0.47243
51 2 0.474498 0.47058 0.47372
52 3 0.475361 0.478611 0.478611
53 2 0.483963 0.479092 0.482538
54 3 0.484414 0.486713 0.488471
55 2 0.493161 0.488081 0.492138
56 1 0.493215 0.496533 0.496725
57 1 0.50221 0.498591 0.499541
58 2 0.502203 0.505351 0.506332
59 2 0.511356 0.507145 0.508537
60 3 0.512072 0.514506 0.514576
61 3 0.521169 0.517763 0.515078
62 3 0.521406 0.525666 0.520719
63 2 0.530697 0.527198 0.523232
64 3 0.53079 0.534453 0.529647
65 1 0.539641 0.535216 0.533431
66 3 0.539956 0.543493 0.538548
67 1 0.548626 0.544259 0.542622
68 3 0.549223 0.552448 0.547377
69 1 0.556818 0.551766 0.552973
70 2 0.558055 0.559931 0.55764
71 1 0.566861 0.560964 0.561215
72 1 0.566467 0.567633 0.568204
73 2 0.575016 0.56847 0.572716
74 2 0.574989 0.575319 0.579524
75 2 0.583641 0.576659 0.583095
76 3 0.584134 0.584232 0.588849
77 1 0.593084 0.586979 0.591046
78 3 0.59275 0.592128 0.59913
79 1 0.601537 0.595481 0.601648
80 2 0.601026 0.602221 0.608488
81 1 0.609568 0.603073 0.612372
82 1 0.610124 0.611617 0.616837
83 3 0.618998 0.612366 0.621065
84 1 0.618901 0.620782 0.626054
85 3 0.627836 0.62299 0.629269
86 1 0.627593 0.631434 0.63408
87 1 0.636193 0.633603 0.637805
88 3 0.63567 0.640716 0.644251
89 1 0.644171 0.644594 0.646144
90 3 0.643749 0.651685 0.65244
91 1 0.652441 0.65393 0.656058
92 3 0.652253 0.661715 0.661983
93 2 0.661102 0.663386 0.665509
94 2 0.660511 0.670665 0.671919
95 3 0.669703 0.673591 0.674362
96 3 0.668837 0.680412 0.681074
97 2 0.677053 0.681826 0.685495
98 1 0.676155 0.689452 0.690933
99 3 0.684136 0.691403 0.695695
100 1 0.681655 0.696774 0.703269
ITEM: TIMESTEP
200
ITEM: NUMBER OF ATOMS
100
ITEM: BOX BOUNDS ff ff ff
0.0000000000000000e+00 1.5850000000000000e+02
0.0000000000000000e+00 1.5850000000000000e+02
0.0000000000000000e+00 1.5850000000000000e+02
ITEM: ATOMS id type xs ys zs
1 2 0.238078 0.252779 0.253046
2 3 0.244384 0.253165 0.260414
3 1 0.250483 0.260286 0.259269
4 1 0.255791 0.261453 0.267172
5 2 0.263033 0.268007 0.265869
6 1 0.267749 0.268108 0.274305
7 1 0.275189 0.274335 0.274083
8 3 0.278533 0.274999 0.283155
9 1 0.286458 0.280486 0.283756
10 2 0.288068 0.282973 0.292983
11 3 0.295085 0.289377 0.293349
12 3 0.295188 0.293438 0.302119
13 2 0.301219 0.300438 0.301339
14 3 0.302702 0.304383 0.310007
15 2 0.310574 0.309693 0.310222
16 3 0.311721 0.312581 0.318973
17 2 0.319242 0.318073 0.320163
18 3 0.32033 0.322015 0.329216
19 2 0.328147 0.326817 0.329569
20 2 0.328955 0.330705 0.338072
21 3 0.33698 0.335872 0.338511
22 3 0.337722 0.339773 0.347451
23 2 0.345681 0.345165 0.347404
24 1 0.347714 0.347979 0.356232
25 1 0.355557 0.353703 0.355784
26 2 0.357605 0.356679 0.364532
27 1 0.364751 0.363197 0.364015
28 3 0.36719 0.36659 0.372855
29 3 0.374721 0.372233 0.372202
30 2 0.377046 0.375344 0.381391
31 3 0.384745 0.381458 0.38187
32 3 0.38585 0.383795 0.391242
33 2 0.393235 0.389979 0.392168
34 2 0.394407 0.392419 0.401458
35 1 0.401472 0.399006 0.401228
36 1 0.402205 0.403034 0.409878
37 1 0.408939 0.409824 0.410326
38 3 0.410415 0.412562 0.419482
39 3 0.418282 0.417856 0.419822
40 1 0.420783 0.420529 0.428921
41 1 0.428807 0.425652 0.429034
42 1 0.42983 0.429392 0.43762
43 2 0.438683 0.433649 0.43863
44 3 0.439087 0.437136 0.447534
45 1 0.447178 0.442661 0.448466
46 1 0.447271 0.447432 0.456952
47 3 0.455641 0.45219 0.457295
48 1 0.456138 0.456763 0.465596
49 3 0.465294 0.459228 0.466979
50 3 0.46568 0.467373 0.472368
51 2 0.474761 0.469781 0.474282
52 3 0.474904 0.476979 0.480955
53 2 0.483887 0.48036 0.482151
54 3 0.484036 0.487195 0.489066
55 2 0.493153 0.489684 0.491038
56 1 0.491991 0.495565 0.498808
57 1 0.501101 0.497377 0.501522
58 2 0.501388 0.505595 0.506345
59 2 0.51071 0.50833 0.507317
60 3 0.510898 0.517003 0.511431
61 3 0.519898 0.518739 0.514174
62 3 0.520559 0.527159 0.518792
63 2 0.52972 0.528204 0.521244
64 3 0.530718 0.536305 0.5265
65 1 0.539286 0.536627 0.531023
66 3 0.539543 0.543815 0.537594
67 1 0.54807 0.544105 0.541949
68 3 0.548028 0.55257 0.546875
69 1 0.55693 0.553611 0.55015
70 2 0.557252 0.561091 0.556299
71 1 0.565166 0.560179 0.561887
72 1 0.56537 0.568097 0.567875
73 2 0.574004 0.567947 0.572492
74 2 0.574238 0.574887 0.579338
75 2 0.583464 0.576545 0.5824
76 3 0.582576 0.583168 0.589093
77 1 0.591912 0.585079 0.592459
78 3 0.592358 0.593207 0.597745
79 1 0.601356 0.594131 0.601937
80 2 0.601596 0.601642 0.607865
81 1 0.610733 0.602718 0.610701
82 1 0.611255 0.609725 0.617465
83 3 0.62014 0.612603 0.619581
84 1 0.61984 0.620796 0.625236
85 3 0.628588 0.623399 0.628659
86 1 0.628086 0.631629 0.633853
87 1 0.636516 0.633828 0.638162
88 3 0.635146 0.642053 0.643036
89 1 0.64328 0.643937 0.648025
90 3 0.641931 0.651221 0.654317
91 1 0.650828 0.654187 0.657871
92 3 0.651031 0.661298 0.664122
93 2 0.660693 0.663545 0.666401
94 2 0.661097 0.670875 0.672671
95 3 0.670279 0.673299 0.674736
96 3 0.669719 0.681144 0.68019
97 2 0.678529 0.683367 0.68346
98 1 0.677483 0.68946 0.690943
99 3 0.685411 0.69082 0.696205
100 1 0.683738 0.69707 0.703578
ITEM: TIMESTEP
300
ITEM: NUMBER OF ATOMS
100
ITEM: BOX BOUNDS ff ff ff
0.0000000000000000e+00 1.5850000000000000e+02
0.0000000000000000e+00 1.5850000000000000e+02
0.0000000000000000e+00 1.5850000000000000e+02
ITEM: ATOMS id type xs ys zs
1 2 0.236262 0.257263 0.256192
2 3 0.242592 0.256112 0.262986
3 1 0.249304 0.263102 0.261671
4 1 0.256108 0.262101 0.26826
5 2 0.262832 0.268606 0.266733
6 1 0.269889 0.267006 0.273412
7 1 0.276727 0.273642 0.273447
8 3 0.282315 0.272812 0.281194
9 1 0.287768 0.28107 0.281265
10 2 0.291145 0.282448 0.29019
11 3 0.29549 0.291219 0.29116
12 3 0.297719 0.291832 0.300559
13 2 0.303264 0.300299 0.30153
14 3 0.303965 0.303336 0.310659
15 2 0.308902 0.311353 0.310345
16 3 0.310205 0.314855 0.319488
17 2 0.317038 0.321849 0.320186
18 3 0.318606 0.323567 0.329372
19 2 0.326028 0.329618 0.330837
20 2 0.327873 0.331406 0.340183
21 3 0.335612 0.337267 0.341002
22 3 0.337609 0.340098 0.350001
23 2 0.345455 0.345616 0.348713
24 1 0.348697 0.348859 0.356885
25 1 0.355914 0.354465 0.356315
26 2 0.35915 0.356796 0.365125
27 1 0.367391 0.361989 0.364752
28 3 0.370127 0.363187 0.373779
29 3 0.375903 0.37097 0.374376
30 2 0.378752 0.37239 0.383725
31 3 0.385723 0.379389 0.3834
32 3 0.388348 0.381249 0.392375
33 2 0.393617 0.389134 0.392123
34 2 0.396254 0.391426 0.401296
35 1 0.401119 0.399839 0.401589
36 1 0.402776 0.401988 0.410502
37 1 0.409503 0.408431 0.410722
38 3 0.411662 0.411131 0.419741
39 3 0.417669 0.418701 0.41984
40 1 0.420637 0.420251 0.428585
41 1 0.427533 0.426902 0.428805
42 1 0.429903 0.428253 0.43809
43 2 0.437622 0.433966 0.438999
44 3 0.439444 0.43673 0.448267
45 1 0.447788 0.441239 0.447951
46 1 0.449154 0.443965 0.457057
47 3 0.457446 0.449639 0.457762
48 1 0.457298 0.454187 0.466333
49 3 0.464796 0.459954 0.466056
50 3 0.466457 0.463682 0.474797
51 2 0.474047 0.469759 0.474574
52 3 0.473791 0.475749 0.482351
53 2 0.482405 0.480309 0.482739
54 3 0.48235 0.486326 0.490197
55 2 0.491512 0.488426 0.492676
56 1 0.491568 0.495507 0.49917
57 1 0.500583 0.498694 0.500024
58 2 0.500745 0.507259 0.504523
59 2 0.509668 0.508795 0.507279
60 3 0.510099 0.518098 0.51033
61 3 0.519392 0.519887 0.512284
62 3 0.520406 0.528873 0.516003
63 2 0.528967 0.529872 0.520368
64 3 0.529718 0.537736 0.525858
65 1 0.538629 0.538661 0.529134
66 3 0.539117 0.546661 0.534476
67 1 0.548015 0.547497 0.538384
68 3 0.548222 0.552742 0.546558
69 1 0.557086 0.554198 0.550404
70 2 0.556369 0.559709 0.558495
71 1 0.565227 0.56181 0.561505
72 1 0.565163 0.568798 0.568131
73 2 0.573631 0.568933 0.573248
74 2 0.574278 0.576819 0.578518
75 2 0.582329 0.5767 0.583928
76 3 0.583691 0.584852 0.589265
77 1 0.591791 0.58384 0.594417
78 3 0.593196 0.592291 0.598998
79 1 0.602417 0.592493 0.602019
80 2 0.602816 0.600591 0.607244
81 1 0.611819 0.603901 0.609598
82 1 0.612345 0.61152 0.615473
83 3 0.620959 0.6138 0.619273
84 1 0.620111 0.621283 0.625239
85 3 0.628549 0.624465 0.628428
86 1 0.627134 0.630807 0.635686
87 1 0.635614 0.63466 0.637768
88 3 0.634153 0.64139 0.644544
89 1 0.642974 0.642715 0.649243
90 3 0.643032 0.650897 0.654207
91 1 0.651629 0.651921 0.658186
92 3 0.650936 0.660074 0.663281
93 2 0.659384 0.662707 0.66703
94 2 0.659462 0.671671 0.670351
95 3 0.667686 0.673073 0.675026
96 3 0.667841 0.68081 0.680812
97 2 0.677033 0.681797 0.683989
98 1 0.677571 0.688684 0.691071
99 3 0.68701 0.689552 0.693912
100 1 0.687438 0.696545 0.700443
ITEM: TIMESTEP
400
ITEM: NUMBER OF ATOMS
100
ITEM: BOX BOUNDS ff ff ff
0.0000000000000000e+00 1.5850000000000000e+02
0.0000000000000000e+00 1.5850000000000000e+02
0.0000000000000000e+00 1.5850000000000000e+02
ITEM: ATOMS id type xs ys zs
1 2 0.234315 0.26357 0.259587
2 3 0.240925 0.259677 0.265952
3 1 0.248727 0.264623 0.263967
4 1 0.256633 0.261551 0.268964
5 2 0.264015 0.267824 0.267252
6 1 0.270939 0.266797 0.273564
7 1 0.277795 0.273751 0.272889
8 3 0.284847 0.2736 0.279724
9 1 0.288902 0.282141 0.281031
10 2 0.294994 0.282917 0.28863
11 3 0.298936 0.291539 0.289496
12 3 0.301382 0.293354 0.298528
13 2 0.303817 0.3023 0.300361
14 3 0.305834 0.303542 0.309761
15 2 0.308464 0.313143 0.311292
16 3 0.310114 0.313601 0.320829
17 2 0.313483 0.322942 0.322369
18 3 0.316364 0.324212 0.331717
19 2 0.322018 0.332299 0.33157
20 2 0.32677 0.332781 0.340124
21 3 0.333636 0.340332 0.339901
22 3 0.338392 0.340331 0.348178
23 2 0.344831 0.347226 0.349156
24 1 0.348673 0.347055 0.358113
25 1 0.355659 0.353783 0.358554
26 2 0.360117 0.353979 0.367299
27 1 0.367101 0.360722 0.366842
28 3 0.371647 0.362061 0.375453
29 3 0.379881 0.367666 0.374762
30 2 0.38281 0.368497 0.383583
31 3 0.386427 0.377226 0.384616
32 3 0.389202 0.379425 0.393553
33 2 0.393588 0.388245 0.393409
34 2 0.396849 0.390507 0.402098
35 1 0.401816 0.398717 0.401681
36 1 0.406072 0.400329 0.410422
37 1 0.409606 0.409399 0.410856
38 3 0.412231 0.410238 0.420037
39 3 0.418336 0.418037 0.419948
40 1 0.419857 0.420661 0.429305
41 1 0.426651 0.4273 0.429842
42 1 0.429539 0.428207 0.43943
43 2 0.436907 0.434509 0.439519
44 3 0.441218 0.434345 0.447786
45 1 0.447876 0.440929 0.448383
46 1 0.451032 0.441783 0.457505
47 3 0.457545 0.44869 0.457667
48 1 0.46062 0.450367 0.466889
49 3 0.466278 0.458293 0.466506
50 3 0.465606 0.462859 0.474836
51 2 0.472882 0.469352 0.475929
52 3 0.472257 0.473628 0.484534
53 2 0.481053 0.477662 0.485681
54 3 0.481799 0.484133 0.492789
55 2 0.489728 0.489461 0.492169
56 1 0.490458 0.497131 0.497931
57 1 0.499424 0.500494 0.498339
58 2 0.500336 0.508366 0.503934
59 2 0.509539 0.51186 0.504282
60 3 0.510977 0.518937 0.510835
61 3 0.519874 0.52237 0.511598
62 3 0.520134 0.529368 0.518357
63 2 0.529196 0.533133 0.518245
64 3 0.529934 0.540489 0.524299
65 1 0.539133 0.542801 0.526803
66 3 0.539151 0.54828 0.534767
67 1 0.547845 0.548525 0.539047
68 3 0.548261 0.556239 0.544883
69 1 0.555752 0.555001 0.551025
70 2 0.556439 0.562284 0.556967
71 1 0.564768 0.562475 0.562326
72 1 0.565069 0.568688 0.569527
73 2 0.573788 0.570544 0.572532
74 2 0.574623 0.576591 0.580177
75 2 0.58339 0.577413 0.583536
76 3 0.583782 0.58396 0.590613
77 1 0.592901 0.585022 0.592566
78 3 0.594168 0.591508 0.599632
79 1 0.603217 0.593009 0.601732
80 2 0.60347 0.601742 0.606414
81 1 0.611957 0.603451 0.61069
82 1 0.61135 0.612141 0.61447
83 3 0.620036 0.614605 0.618141
84 1 0.619029 0.622352 0.62366
85 3 0.627316 0.623765 0.628486
86 1 0.626772 0.631117 0.634124
87 1 0.634829 0.63107 0.639597
88 3 0.634403 0.638765 0.645744
89 1 0.643093 0.641525 0.648261
90 3 0.642517 0.649544 0.654095
91 1 0.651114 0.652427 0.656938
92 3 0.650111 0.660552 0.662166
93 2 0.658301 0.663035 0.665656
94 2 0.657563 0.669845 0.672594
95 3 0.666333 0.671311 0.675729
96 3 0.667005 0.679291 0.681273
97 2 0.675953 0.679772 0.685649
98 1 0.678057 0.688825 0.688365
99 3 0.687058 0.687425 0.691487
100 1 0.689658 0.695719 0.695748
ITEM: TIMESTEP
500
ITEM: NUMBER OF ATOMS
100
ITEM: BOX BOUNDS ff ff ff
0.0000000000000000e+00 1.5850000000000000e+02
0.0000000000000000e+00 1.5850000000000000e+02
0.0000000000000000e+00 1.5850000000000000e+02
ITEM: ATOMS id type xs ys zs
1 2 0.23523 0.268285 0.266295
2 3 0.242916 0.262983 0.26847
3 1 0.250878 0.268089 0.265146
4 1 0.25814 0.264818 0.270402
5 2 0.265985 0.269475 0.268425
6 1 0.272261 0.268268 0.275856
7 1 0.279145 0.274665 0.273571
8 3 0.284868 0.276139 0.281255
9 1 0.291657 0.282926 0.279323
10 2 0.296784 0.284076 0.287373
11 3 0.298586 0.293396 0.289194
12 3 0.30411 0.294206 0.297108
13 2 0.303469 0.303087 0.300312
14 3 0.308237 0.303782 0.308272
15 2 0.307091 0.312904 0.311958
16 3 0.311794 0.314465 0.320533
17 2 0.311654 0.323501 0.323242
18 3 0.317833 0.324636 0.330142
19 2 0.319814 0.333921 0.332947
20 2 0.326074 0.333723 0.340493
21 3 0.330274 0.341919 0.342438
22 3 0.337265 0.340464 0.34874
23 2 0.343052 0.347905 0.349914
24 1 0.349272 0.346028 0.357144
25 1 0.355643 0.353572 0.359107
26 2 0.361162 0.350525 0.366756
27 1 0.366949 0.358345 0.368291
28 3 0.372826 0.35669 0.375729
29 3 0.377554 0.365088 0.376729
30 2 0.382636 0.366598 0.384428
31 3 0.387548 0.374621 0.384168
32 3 0.392365 0.376839 0.392362
33 2 0.395609 0.386115 0.393238
34 2 0.397993 0.38842 0.402308
35 1 0.402521 0.396914 0.402297
36 1 0.40528 0.399235 0.411479
37 1 0.410089 0.408199 0.411304
38 3 0.413194 0.409854 0.420159
39 3 0.4169 0.41878 0.420977
40 1 0.421304 0.418745 0.429372
41 1 0.42603 0.427634 0.431172
42 1 0.430901 0.426804 0.439609
43 2 0.436382 0.43466 0.440468
44 3 0.441736 0.434653 0.448548
45 1 0.448859 0.440982 0.449284
46 1 0.453759 0.440149 0.457412
47 3 0.459814 0.447476 0.458668
48 1 0.459585 0.451501 0.46756
49 3 0.467376 0.457228 0.469483
50 3 0.467169 0.461278 0.478167
51 2 0.474753 0.467038 0.479351
52 3 0.474957 0.472773 0.487291
53 2 0.480523 0.480634 0.485493
54 3 0.482918 0.485536 0.493593
55 2 0.490032 0.491578 0.491505
56 1 0.490896 0.497089 0.499322
57 1 0.498381 0.503335 0.497868
58 2 0.501025 0.509111 0.505366
59 2 0.508684 0.5147 0.502625
60 3 0.510233 0.520208 0.510433
61 3 0.518628 0.524836 0.509602
62 3 0.519802 0.531441 0.516788
63 2 0.52909 0.533837 0.518418
64 3 0.529588 0.541092 0.52521
65 1 0.538736 0.542963 0.527951
66 3 0.538205 0.549816 0.53464
67 1 0.547309 0.552468 0.537425
68 3 0.546417 0.556837 0.545896
69 1 0.555645 0.558847 0.548593
70 2 0.555795 0.563954 0.55705
71 1 0.564686 0.56427 0.560648
72 1 0.564584 0.569853 0.568768
73 2 0.573134 0.568541 0.573045
74 2 0.574514 0.575043 0.580058
75 2 0.584328 0.575784 0.581328
76 3 0.584276 0.58232 0.588772
77 1 0.59312 0.584949 0.591161
78 3 0.593273 0.59174 0.597854
79 1 0.602344 0.594494 0.600523
80 2 0.601598 0.601829 0.60696
81 1 0.61056 0.604963 0.608403
82 1 0.61028 0.612866 0.614496
83 3 0.619359 0.613509 0.618008
84 1 0.619303 0.621668 0.623217
85 3 0.627311 0.621642 0.62845
86 1 0.627177 0.629504 0.634196
87 1 0.634943 0.630662 0.639699
88 3 0.633627 0.638717 0.644718
89 1 0.641821 0.640757 0.649127
90 3 0.640986 0.649632 0.652756
91 1 0.649616 0.651907 0.656487
92 3 0.648737 0.660062 0.662075
93 2 0.657156 0.661371 0.6668
94 2 0.657184 0.668777 0.672585
95 3 0.666297 0.669169 0.676517
96 3 0.667278 0.677603 0.680995
97 2 0.676071 0.67752 0.684317
98 1 0.677914 0.686278 0.687914
99 3 0.687242 0.687004 0.689991
100 1 0.690295 0.695944 0.690407
ITEM: TIMESTEP
600
ITEM: NUMBER OF ATOMS
100
ITEM: BOX BOUNDS ff ff ff
0.0000000000000000e+00 1.5850000000000000e+02
0.0000000000000000e+00 1.5850000000000000e+02
0.0000000000000000e+00 1.5850000000000000e+02
ITEM: ATOMS id type xs ys zs
1 2 0.235495 0.271256 0.269394
2 3 0.243865 0.267312 0.273102
3 1 0.25144 0.271397 0.268783
4 1 0.259174 0.26728 0.27241
5 2 0.266885 0.272289 0.269986
6 1 0.274311 0.270479 0.27566
7 1 0.281013 0.277462 0.273992
8 3 0.289022 0.276532 0.279716
9 1 0.293075 0.28531 0.280321
10 2 0.298999 0.284996 0.288065
11 3 0.300081 0.294686 0.289937
12 3 0.305218 0.296178 0.298139
13 2 0.303567 0.30537 0.300251
14 3 0.308408 0.306444 0.308905
15 2 0.308242 0.315343 0.311725
16 3 0.313958 0.315742 0.319286
17 2 0.313849 0.324504 0.322951
18 3 0.31909 0.325068 0.330963
19 2 0.319735 0.333644 0.333897
20 2 0.326545 0.333316 0.340627
21 3 0.329325 0.342146 0.34408
22 3 0.336066 0.339495 0.350589
23 2 0.341204 0.347271 0.353915
24 1 0.349312 0.344143 0.357817
25 1 0.354728 0.352207 0.359576
26 2 0.361942 0.349945 0.365787
27 1 0.367199 0.358007 0.367491
28 3 0.373068 0.356195 0.375043
29 3 0.376772 0.36456 0.377326
30 2 0.382509 0.364528 0.385478
31 3 0.38739 0.373231 0.385883
32 3 0.392965 0.374223 0.393897
33 2 0.396453 0.383292 0.393904
34 2 0.402249 0.38575 0.401375
35 1 0.402855 0.395557 0.402366
36 1 0.406161 0.397605 0.411287
37 1 0.409349 0.406528 0.412373
38 3 0.413346 0.408109 0.421353
39 3 0.417473 0.416687 0.422336
40 1 0.42214 0.417618 0.431123
41 1 0.427876 0.425412 0.431245
42 1 0.432783 0.426324 0.439563
43 2 0.439481 0.433884 0.440127
44 3 0.442427 0.434508 0.449393
45 1 0.449296 0.441248 0.450843
46 1 0.450999 0.442254 0.460383
47 3 0.458019 0.449053 0.461895
48 1 0.461719 0.449213 0.470753
49 3 0.467865 0.457044 0.47059
50 3 0.470724 0.460393 0.47935
51 2 0.475282 0.468837 0.478991
52 3 0.477638 0.472781 0.487491
53 2 0.483936 0.479956 0.485636
54 3 0.483527 0.48601 0.493446
55 2 0.489446 0.493611 0.492105
56 1 0.491809 0.498294 0.50014
57 1 0.498333 0.50467 0.496671
58 2 0.499997 0.510385 0.504448
59 2 0.508224 0.515247 0.503007
60 3 0.509103 0.522068 0.509709
61 3 0.517529 0.526504 0.509601
62 3 0.518287 0.532172 0.51745
63 2 0.526811 0.536635 0.517604
64 3 0.529005 0.539171 0.52658
65 1 0.53698 0.544688 0.526886
66 3 0.53685 0.549506 0.535268
67 1 0.545057 0.553498 0.536529
68 3 0.545146 0.559343 0.544383
69 1 0.554122 0.561601 0.546708
70 2 0.555218 0.564256 0.556116
71 1 0.564537 0.564827 0.558292
72 1 0.564913 0.567841 0.567321
73 2 0.574083 0.569653 0.569595
74 2 0.573842 0.573482 0.578621
75 2 0.583363 0.575149 0.581256
76 3 0.583137 0.58166 0.588091
77 1 0.592118 0.584539 0.591351
78 3 0.59209 0.592997 0.59574
79 1 0.601015 0.595149 0.597585
80 2 0.60122 0.602036 0.603991
81 1 0.610284 0.605109 0.606803
82 1 0.609548 0.611158 0.614351
83 3 0.618351 0.612262 0.617834
84 1 0.618241 0.618705 0.625283
85 3 0.626803 0.621633 0.627921
86 1 0.625893 0.628199 0.635188
87 1 0.634533 0.63154 0.637396
88 3 0.632969 0.639513 0.642024
89 1 0.640038 0.640862 0.648422
90 3 0.640032 0.649515 0.652098
91 1 0.647017 0.649403 0.65945
92 3 0.648028 0.657987 0.663029
93 2 0.656409 0.658373 0.668224
94 2 0.658471 0.667578 0.670854
95 3 0.665831 0.667423 0.677045
96 3 0.667666 0.676013 0.68093
97 2 0.676607 0.676155 0.684499
98 1 0.679227 0.685174 0.684977
99 3 0.688156 0.686984 0.687163
100 1 0.68994 0.696475 0.688295
ITEM: TIMESTEP
700
ITEM: NUMBER OF ATOMS
100
ITEM: BOX BOUNDS ff ff ff
0.0000000000000000e+00 1.5850000000000000e+02
0.0000000000000000e+00 1.5850000000000000e+02
0.0000000000000000e+00 1.5850000000000000e+02
ITEM: ATOMS id type xs ys zs
1 2 0.236603 0.273421 0.272059
2 3 0.244376 0.269768 0.276631
3 1 0.251781 0.27467 0.272985
4 1 0.260231 0.271061 0.275988
5 2 0.267325 0.275556 0.271687
6 1 0.275797 0.272642 0.274745
7 1 0.282923 0.278795 0.272418
8 3 0.289989 0.277593 0.278544
9 1 0.295314 0.285631 0.278984
10 2 0.298899 0.28704 0.287885
11 3 0.301424 0.295677 0.289081
12 3 0.303885 0.297157 0.298259
13 2 0.307102 0.30645 0.299871
14 3 0.309651 0.307887 0.309077
15 2 0.310783 0.317364 0.310743
16 3 0.313042 0.318341 0.320327
17 2 0.315673 0.327451 0.322404
18 3 0.319118 0.326199 0.331268
19 2 0.322326 0.334294 0.335555
20 2 0.3266 0.331844 0.343948
21 3 0.330402 0.34027 0.347278
22 3 0.337653 0.338809 0.353667
23 2 0.342765 0.346585 0.354944
24 1 0.349573 0.345376 0.361569
25 1 0.354955 0.352736 0.362355
26 2 0.36201 0.351333 0.368323
27 1 0.367662 0.358553 0.370046
28 3 0.374584 0.357676 0.376589
29 3 0.37855 0.366205 0.377255
30 2 0.3861 0.365674 0.383846
31 3 0.38749 0.374734 0.387233
32 3 0.3932 0.374585 0.395072
33 2 0.396045 0.383474 0.396392
34 2 0.400652 0.384283 0.405034
35 1 0.404928 0.392826 0.405453
36 1 0.409857 0.394823 0.413314
37 1 0.41235 0.40372 0.413436
38 3 0.415881 0.406174 0.421941
39 3 0.421148 0.414017 0.421959
40 1 0.424392 0.416362 0.430767
41 1 0.430977 0.422934 0.431906
42 1 0.433372 0.424197 0.441203
43 2 0.438795 0.431982 0.442729
44 3 0.442067 0.432216 0.451951
45 1 0.446894 0.440943 0.452508
46 1 0.450445 0.442029 0.461125
47 3 0.456453 0.449672 0.460731
48 1 0.460477 0.450933 0.469788
49 3 0.46657 0.458192 0.46959
50 3 0.47015 0.459944 0.478564
51 2 0.47677 0.46687 0.477785
52 3 0.478213 0.471265 0.48615
53 2 0.483003 0.479774 0.485363
54 3 0.485755 0.484369 0.493423
55 2 0.49136 0.491727 0.490676
56 1 0.491474 0.498427 0.497671
57 1 0.498114 0.504953 0.49594
58 2 0.498577 0.511033 0.503226
59 2 0.505074 0.518131 0.502395
60 3 0.508241 0.521463 0.511082
61 3 0.515039 0.528274 0.510108
62 3 0.518062 0.531175 0.518934
63 2 0.525701 0.537096 0.517832
64 3 0.525707 0.54217 0.526149
65 1 0.533369 0.547779 0.525886
66 3 0.535667 0.550044 0.535037
67 1 0.543494 0.555509 0.535307
68 3 0.546056 0.557527 0.544302
69 1 0.554452 0.562147 0.545025
70 2 0.555125 0.564094 0.554341
71 1 0.564022 0.566829 0.556423
72 1 0.564574 0.568025 0.565703
73 2 0.573623 0.569717 0.568611
74 2 0.574058 0.573377 0.577393
75 2 0.582704 0.576678 0.579214
76 3 0.583025 0.581733 0.58758
77 1 0.59111 0.586932 0.587669
78 3 0.5916 0.591535 0.595806
79 1 0.600526 0.594954 0.596456
80 2 0.600632 0.602109 0.602671
81 1 0.60917 0.602396 0.606869