ITEM: TIMESTEP
0
ITEM: NUMBER OF ATOMS
100
ITEM: BOX BOUNDS ff ff ff
0.0000000000000000e+00 1.5850000000000000e+02
0.0000000000000000e+00 1.5850000000000000e+02
0.0000000000000000e+00 1.5850000000000000e+02
ITEM: ATOMS id type xs ys zs
6 1 0.334322 0.304461 0.295987
7 1 0.338662 0.300502 0.303411
8 3 0.331631 0.297093 0.309336
5 2 0.329011 0.312439 0.298827
4 1 0.334654 0.319022 0.303057
2 3 0.341739 0.307172 0.312047
10 2 0.335642 0.305658 0.320858
11 3 0.339278 0.306477 0.32963
9 1 0.334945 0.296275 0.31839
1 2 0.347316 0.305795 0.319514
3 1 0.337176 0.31615 0.312058
12 3 0.337136 0.315282 0.333224
13 2 0.340231 0.317471 0.341812
14 3 0.335147 0.325181 0.344968
16 3 0.333875 0.334927 0.357495
15 2 0.338433 0.327235 0.353819
17 2 0.336592 0.3362 0.366524
18 3 0.337313 0.345453 0.368476
20 2 0.344429 0.359794 0.364522
19 2 0.344014 0.350011 0.363287
21 3 0.34783 0.363391 0.373043
22 3 0.346241 0.372824 0.373709
24 1 0.351736 0.386317 0.379271
23 2 0.35123 0.376399 0.380684
26 2 0.365269 0.387837 0.388018
27 1 0.36903 0.392981 0.395161
25 1 0.355934 0.390802 0.386896
28 3 0.378076 0.389783 0.396351
29 3 0.382942 0.397231 0.400148
30 2 0.392547 0.396591 0.398877
32 3 0.406205 0.402483 0.401181
31 3 0.396939 0.403574 0.403443
33 2 0.41039 0.410311 0.405451
34 2 0.411409 0.408967 0.414944
36 1 0.405126 0.40526 0.427938
35 1 0.402938 0.409126 0.419606
37 1 0.398665 0.406547 0.435046
38 3 0.401532 0.401928 0.442839
39 3 0.407344 0.408495 0.447432
40 1 0.411685 0.404238 0.454899
42 1 0.424998 0.406144 0.464803
41 1 0.418456 0.409866 0.458534
44 3 0.435783 0.409328 0.475305
43 2 0.431632 0.413186 0.467515
45 1 0.444222 0.413997 0.476914
46 1 0.445405 0.417146 0.486021
47 3 0.454474 0.420657 0.486953
48 1 0.45572 0.425245 0.495366
50 3 0.465954 0.432127 0.505119
49 3 0.464132 0.429976 0.495916
51 2 0.472575 0.438828 0.506609
52 3 0.479705 0.43772 0.500088
54 3 0.491261 0.442947 0.510084
53 2 0.487249 0.443888 0.501261
55 2 0.499211 0.448489 0.510464
56 1 0.503477 0.447309 0.518956
60 3 0.510465 0.47715 0.519318
57 1 0.510969 0.45268 0.518998
58 2 0.507762 0.461539 0.517627
59 2 0.514525 0.468609 0.517412
61 3 0.516566 0.48481 0.518446
62 3 0.524512 0.483201 0.523809
64 3 0.539526 0.489363 0.526453
63 2 0.530336 0.490698 0.523506
65 1 0.543748 0.497756 0.52828
66 3 0.538178 0.501993 0.535298
68 3 0.534842 0.514876 0.544279
67 1 0.541704 0.510351 0.539103
69 1 0.535629 0.511628 0.553728
71 1 0.551018 0.514482 0.553423
70 2 0.54275 0.516783 0.557679
72 1 0.557676 0.5209 0.556269
74 2 0.56534 0.528824 0.568094
73 2 0.559062 0.521492 0.566109
75 2 0.566752 0.528414 0.577528
76 3 0.571199 0.536949 0.579137
77 1 0.57278 0.538002 0.58875
78 3 0.573434 0.547234 0.590816
79 1 0.572485 0.547668 0.599838
80 2 0.573465 0.556912 0.602519
82 1 0.582012 0.569462 0.60604
81 1 0.581622 0.561505 0.600519
84 1 0.590981 0.582203 0.60963
83 3 0.589792 0.574645 0.603578
85 3 0.595942 0.579276 0.617419
87 1 0.599991 0.586016 0.63075
86 1 0.592319 0.584386 0.624964
88 3 0.597875 0.591364 0.638455
89 1 0.605742 0.592115 0.6439
90 3 0.605064 0.598594 0.651154
92 3 0.61866 0.604009 0.648311
93 2 0.628058 0.605049 0.650788
91 1 0.613527 0.600506 0.655427
100 1 0.628856 0.620004 0.655911
94 2 0.629473 0.608479 0.659513
95 3 0.639009 0.608724 0.661228
96 3 0.639818 0.6116 0.670411
97 2 0.635259 0.619898 0.671493
99 3 0.6379 0.623331 0.656921
98 1 0.638376 0.626914 0.665718
ITEM: TIMESTEP
100
ITEM: NUMBER OF ATOMS
100
ITEM: BOX BOUNDS ff ff ff
0.0000000000000000e+00 1.5850000000000000e+02
0.0000000000000000e+00 1.5850000000000000e+02
0.0000000000000000e+00 1.5850000000000000e+02
ITEM: ATOMS id type xs ys zs
6 1 0.339708 0.304671 0.295934
7 1 0.341417 0.303031 0.305285
8 3 0.335097 0.296624 0.308798
5 2 0.33111 0.308981 0.295173
4 1 0.331128 0.316802 0.300833
2 3 0.340316 0.309214 0.311188
10 2 0.333877 0.305229 0.321736
11 3 0.336314 0.305932 0.331038
9 1 0.336204 0.296489 0.318368
1 2 0.340769 0.305628 0.320146
3 1 0.331941 0.313873 0.310001
12 3 0.334116 0.314795 0.334168
13 2 0.337571 0.31602 0.343093
14 3 0.335713 0.325013 0.346081
16 3 0.338433 0.335624 0.357411
15 2 0.340062 0.32654 0.35456
17 2 0.34331 0.337429 0.36554
18 3 0.341659 0.346555 0.36827
20 2 0.343 0.361689 0.36395
19 2 0.345028 0.352561 0.361512
21 3 0.348015 0.364233 0.371789
22 3 0.345783 0.373332 0.374123
24 1 0.348436 0.385227 0.384067
23 2 0.350935 0.376181 0.38178
26 2 0.363001 0.389005 0.388779
27 1 0.368244 0.392787 0.395956
25 1 0.353757 0.388374 0.391487
28 3 0.377455 0.393446 0.393144
29 3 0.382699 0.397864 0.399941
30 2 0.391829 0.398595 0.39689
32 3 0.406067 0.404418 0.399751
31 3 0.397095 0.403642 0.403217
33 2 0.411414 0.410156 0.405381
34 2 0.413107 0.406025 0.413944
36 1 0.407372 0.402491 0.428064
35 1 0.405046 0.405662 0.419247
37 1 0.399673 0.40265 0.433891
38 3 0.402523 0.400281 0.442808
39 3 0.408818 0.406934 0.445865
40 1 0.412375 0.404579 0.454532
42 1 0.423068 0.408816 0.465463
41 1 0.418932 0.411197 0.457066
44 3 0.434134 0.413212 0.475935
43 2 0.429676 0.415499 0.467679
45 1 0.440664 0.420022 0.478006
46 1 0.445338 0.417814 0.486168
47 3 0.451788 0.424749 0.488059
48 1 0.456596 0.422732 0.49619
50 3 0.468003 0.427877 0.505915
49 3 0.462963 0.429782 0.497906
51 2 0.474432 0.434946 0.507302
52 3 0.480591 0.435056 0.499869
54 3 0.492692 0.440864 0.50829
53 2 0.486831 0.442367 0.500774
55 2 0.499217 0.447973 0.508595
56 1 0.505501 0.446381 0.515746
60 3 0.510684 0.477128 0.520082
57 1 0.512216 0.453313 0.515651
58 2 0.508109 0.461782 0.517786
59 2 0.51474 0.46879 0.517405
61 3 0.517167 0.484256 0.519646
62 3 0.524452 0.482373 0.525693
64 3 0.537947 0.488256 0.531626
63 2 0.530355 0.489999 0.525922
65 1 0.542815 0.496512 0.532735
66 3 0.537144 0.502604 0.537615
68 3 0.534787 0.517235 0.542513
67 1 0.540895 0.511497 0.537712
69 1 0.535423 0.515408 0.551976
71 1 0.551141 0.517698 0.551491
70 2 0.542841 0.520406 0.555615
72 1 0.558045 0.523809 0.554359
74 2 0.564578 0.530427 0.567062
73 2 0.559505 0.522869 0.563856
75 2 0.566333 0.529407 0.5765
76 3 0.569399 0.53782 0.580102
77 1 0.571532 0.536712 0.589446
78 3 0.572804 0.545377 0.59351
79 1 0.575598 0.544221 0.602675
80 2 0.57557 0.552722 0.60724
82 1 0.581682 0.56716 0.607786
81 1 0.581394 0.558951 0.602716
84 1 0.587327 0.581844 0.608408
83 3 0.586611 0.57391 0.602952
85 3 0.593334 0.580097 0.615761
87 1 0.600158 0.58628 0.628543
86 1 0.593458 0.587675 0.621739
88 3 0.599794 0.593481 0.634959
89 1 0.607058 0.592584 0.641255
90 3 0.606294 0.599401 0.648045
92 3 0.621759 0.602077 0.648584
93 2 0.629668 0.602021 0.654115
91 1 0.614102 0.599201 0.653717
100 1 0.631758 0.620511 0.652558
94 2 0.628578 0.608267 0.661394
95 3 0.636789 0.608753 0.666441
96 3 0.635637 0.614598 0.674037
97 2 0.633281 0.623372 0.670822
99 3 0.640175 0.620028 0.657253
98 1 0.64008 0.626234 0.664635
ITEM: TIMESTEP
200
ITEM: NUMBER OF ATOMS
100
ITEM: BOX BOUNDS ff ff ff
0.0000000000000000e+00 1.5850000000000000e+02
0.0000000000000000e+00 1.5850000000000000e+02
0.0000000000000000e+00 1.5850000000000000e+02
ITEM: ATOMS id type xs ys zs
6 1 0.338097 0.301944 0.295532
7 1 0.340443 0.302088 0.304897
8 3 0.334572 0.296271 0.309888
5 2 0.329285 0.305732 0.294521
4 1 0.32941 0.314546 0.298424
2 3 0.339699 0.309157 0.309066
10 2 0.335328 0.305919 0.322234
11 3 0.338159 0.306847 0.331412
9 1 0.336914 0.296887 0.319227
1 2 0.34119 0.307561 0.318472
3 1 0.331166 0.313527 0.307858
12 3 0.33629 0.315829 0.334406
13 2 0.3395 0.316983 0.343436
14 3 0.337479 0.32594 0.346412
16 3 0.339147 0.336386 0.358046
15 2 0.341198 0.327392 0.355201
17 2 0.343315 0.338163 0.366569
18 3 0.341232 0.34719 0.369277
20 2 0.342666 0.362414 0.365347
19 2 0.344794 0.353359 0.362764
21 3 0.347582 0.364791 0.373309
22 3 0.345312 0.373821 0.375865
24 1 0.348132 0.385468 0.386079
23 2 0.350548 0.376475 0.38353
26 2 0.36287 0.388957 0.390338
27 1 0.368441 0.392623 0.397315
25 1 0.353723 0.388424 0.393373
28 3 0.377515 0.393248 0.394078
29 3 0.383078 0.397658 0.400616
30 2 0.392042 0.398415 0.397109
32 3 0.406292 0.404648 0.399132
31 3 0.397544 0.403644 0.403081
33 2 0.411699 0.4107 0.404362
34 2 0.413982 0.406804 0.412893
36 1 0.408879 0.402854 0.427164
35 1 0.406131 0.405939 0.418439
37 1 0.401233 0.402105 0.43301
38 3 0.404278 0.399659 0.441843
39 3 0.409812 0.406782 0.445279
40 1 0.41338 0.404381 0.453921
42 1 0.423203 0.409091 0.465399
41 1 0.419083 0.411526 0.457018
44 3 0.433788 0.41378 0.476195
43 2 0.42907 0.416245 0.468146
45 1 0.439801 0.420945 0.478582
46 1 0.444965 0.418477 0.486353
47 3 0.451141 0.4256 0.488425
48 1 0.456697 0.423064 0.495898
50 3 0.468952 0.427555 0.504808
49 3 0.463029 0.430137 0.497637
51 2 0.4754 0.434595 0.506217
52 3 0.480666 0.435682 0.4982
54 3 0.493605 0.440339 0.506003
53 2 0.487023 0.442843 0.499401
55 2 0.499943 0.447547 0.507038
56 1 0.50679 0.445017 0.513357
60 3 0.510369 0.474775 0.522939
57 1 0.51311 0.452261 0.514242
58 2 0.508767 0.45982 0.518389
59 2 0.514819 0.467338 0.518691
61 3 0.515906 0.48267 0.522521
62 3 0.52391 0.481446 0.527784
64 3 0.53697 0.488847 0.53295
63 2 0.528987 0.489658 0.527585
65 1 0.54149 0.497381 0.532981
66 3 0.535787 0.503851 0.537317
68 3 0.533467 0.518935 0.540832
67 1 0.539575 0.512712 0.536685
69 1 0.533601 0.517746 0.550411
71 1 0.549453 0.5193 0.550738
70 2 0.541053 0.522615 0.554152
72 1 0.556512 0.524972 0.554092
74 2 0.562874 0.530883 0.56726
73 2 0.55729 0.523879 0.563656
75 2 0.564122 0.529545 0.576742
76 3 0.568072 0.537474 0.580589
77 1 0.570001 0.535982 0.58993
78 3 0.572376 0.544368 0.594084
79 1 0.575193 0.542811 0.603185
80 2 0.576181 0.551271 0.60773
82 1 0.583441 0.565233 0.60775
81 1 0.582713 0.556748 0.603196
84 1 0.58983 0.579627 0.60734
83 3 0.589286 0.571118 0.602812
85 3 0.59463 0.578587 0.615651
87 1 0.600224 0.586229 0.628275
86 1 0.594845 0.587044 0.6203
88 3 0.600134 0.594606 0.633073
89 1 0.606027 0.594055 0.6407
90 3 0.605699 0.602342 0.645642
92 3 0.621026 0.601963 0.649153
93 2 0.627511 0.601693 0.656291
91 1 0.61211 0.602054 0.652855
100 1 0.637297 0.61714 0.652168
94 2 0.626799 0.609746 0.661557
95 3 0.633394 0.609523 0.668595
96 3 0.632535 0.617402 0.674102
97 2 0.634398 0.625144 0.668671
99 3 0.643326 0.616072 0.659631
98 1 0.643243 0.624098 0.664993
ITEM: TIMESTEP
300
ITEM: NUMBER OF ATOMS
100
ITEM: BOX BOUNDS ff ff ff
0.0000000000000000e+00 1.5850000000000000e+02
0.0000000000000000e+00 1.5850000000000000e+02
0.0000000000000000e+00 1.5850000000000000e+02
ITEM: ATOMS id type xs ys zs
6 1 0.336643 0.300765 0.295847
7 1 0.339973 0.30218 0.3048
8 3 0.336048 0.295741 0.310827
5 2 0.327177 0.302613 0.295703
4 1 0.325868 0.311638 0.298825
2 3 0.337962 0.30944 0.308654
10 2 0.336681 0.306095 0.322647
11 3 0.340466 0.307895 0.331336
9 1 0.339472 0.297337 0.319704
1 2 0.340703 0.309468 0.31791
3 1 0.328669 0.312006 0.308051
12 3 0.337673 0.316621 0.334375
13 2 0.341703 0.318417 0.342959
14 3 0.338862 0.327063 0.346176
16 3 0.340385 0.337445 0.358
15 2 0.343178 0.328845 0.354623
17 2 0.345061 0.339286 0.366242
18 3 0.342276 0.347848 0.369715
20 2 0.342143 0.363369 0.367076
19 2 0.344646 0.354788 0.363442
21 3 0.347645 0.365333 0.37476
22 3 0.345016 0.373858 0.378448
24 1 0.348119 0.38469 0.389423
23 2 0.350832 0.376165 0.385798
26 2 0.362998 0.388835 0.392407
27 1 0.369053 0.39238 0.399038
25 1 0.354287 0.387435 0.396324
28 3 0.377727 0.393689 0.395012
29 3 0.383637 0.398052 0.401275
30 2 0.392253 0.399265 0.397099
32 3 0.406583 0.405518 0.398452
31 3 0.398068 0.404389 0.402857
33 2 0.41228 0.411354 0.403619
34 2 0.414585 0.407274 0.412061
36 1 0.409437 0.403261 0.426337
35 1 0.40675 0.406492 0.417646
37 1 0.401789 0.402688 0.432199
38 3 0.404827 0.40018 0.441012
39 3 0.410404 0.407249 0.444487
40 1 0.414046 0.404713 0.45306
42 1 0.424035 0.409189 0.464499
41 1 0.419752 0.411814 0.456256
44 3 0.434768 0.413645 0.475255
43 2 0.429944 0.416282 0.46732
45 1 0.440823 0.420746 0.477726
46 1 0.446096 0.41812 0.485376
47 3 0.452255 0.425244 0.487507
48 1 0.457939 0.422668 0.494874
50 3 0.470133 0.427266 0.503835
49 3 0.464158 0.429826 0.496698
51 2 0.476427 0.434412 0.505422
52 3 0.481812 0.43572 0.497517
54 3 0.494545 0.440361 0.505661
53 2 0.488065 0.442927 0.49898
55 2 0.500762 0.44763 0.506972
56 1 0.507532 0.445087 0.513369
60 3 0.50979 0.474732 0.523586
57 1 0.513612 0.452482 0.514616
58 2 0.508906 0.459776 0.518837
59 2 0.514643 0.467524 0.519381
61 3 0.514967 0.482874 0.523289
62 3 0.522883 0.481963 0.528741
64 3 0.535533 0.489897 0.534155
63 2 0.527681 0.490336 0.528555
65 1 0.539809 0.498553 0.534065
66 3 0.533792 0.505013 0.537973
68 3 0.531039 0.520198 0.540766
67 1 0.5374 0.513927 0.537106
69 1 0.530766 0.519347 0.550376
71 1 0.546615 0.519064 0.551359
70 2 0.538564 0.523588 0.554169
72 1 0.554205 0.524038 0.554654
74 2 0.56085 0.530044 0.567613
73 2 0.554286 0.523786 0.564303
75 2 0.561067 0.529735 0.577259
76 3 0.566445 0.537031 0.580581
77 1 0.566779 0.536681 0.590222
78 3 0.570815 0.544786 0.593573
79 1 0.571348 0.544403 0.603204
80 2 0.574087 0.553008 0.606618
82 1 0.585255 0.564055 0.606491
81 1 0.582888 0.555238 0.603348
84 1 0.595923 0.575631 0.605671
83 3 0.593852 0.566609 0.602927
85 3 0.597315 0.57595 0.615218
87 1 0.601202 0.585456 0.627252
86 1 0.599132 0.585064 0.617831
88 3 0.602942 0.594629 0.629707
89 1 0.605701 0.595108 0.638945
90 3 0.607373 0.604326 0.641274
92 3 0.619433 0.600599 0.650659
93 2 0.623206 0.601695 0.659472
91 1 0.610787 0.604873 0.650285
100 1 0.639946 0.609537 0.65478
94 2 0.624822 0.611077 0.661062
95 3 0.628952 0.612249 0.669705
96 3 0.630325 0.621662 0.671333
97 2 0.636486 0.625008 0.664717
99 3 0.642767 0.610721 0.663935
98 1 0.644705 0.620041 0.665532
ITEM: TIMESTEP
400
ITEM: NUMBER OF ATOMS
100
ITEM: BOX BOUNDS ff ff ff
0.0000000000000000e+00 1.5850000000000000e+02
0.0000000000000000e+00 1.5850000000000000e+02
0.0000000000000000e+00 1.5850000000000000e+02
ITEM: ATOMS id type xs ys zs
6 1 0.335132 0.302004 0.296093
7 1 0.339374 0.302946 0.304712
8 3 0.33621 0.296082 0.310716
5 2 0.325686 0.30367 0.297087
4 1 0.324609 0.31241 0.301002
2 3 0.337745 0.309902 0.30931
10 2 0.337251 0.305998 0.322839
11 3 0.341505 0.30769 0.331331
9 1 0.34023 0.297499 0.319368
1 2 0.341465 0.309326 0.318202
3 1 0.328378 0.312186 0.309883
12 3 0.338481 0.31617 0.334815
13 2 0.342876 0.317953 0.343223
14 3 0.339803 0.326405 0.34673
16 3 0.341351 0.336785 0.358499
15 2 0.344415 0.328332 0.354989
17 2 0.346226 0.338889 0.366562
18 3 0.343156 0.347342 0.370065
20 2 0.342081 0.362817 0.367221
19 2 0.344952 0.354323 0.363645
21 3 0.347642 0.36518 0.37475
22 3 0.344788 0.373689 0.378305
24 1 0.347777 0.384869 0.388976
23 2 0.350613 0.376304 0.385547
26 2 0.362599 0.389199 0.39204
27 1 0.36858 0.392813 0.398707
25 1 0.353853 0.387812 0.395879
28 3 0.377292 0.394099 0.394754
29 3 0.383181 0.398447 0.401047
30 2 0.391798 0.399705 0.39688
32 3 0.406038 0.406137 0.398162
31 3 0.397593 0.404833 0.40265
33 2 0.411712 0.41203 0.403289
34 2 0.414311 0.407875 0.411606
36 1 0.409639 0.403514 0.425926
35 1 0.406647 0.406902 0.417397
37 1 0.402185 0.402731 0.432009
38 3 0.405513 0.400054 0.440666
39 3 0.411215 0.407055 0.44408
40 1 0.414984 0.404475 0.452585
42 1 0.424973 0.40902 0.464009
41 1 0.420792 0.41154 0.455679
44 3 0.435547 0.413548 0.47488
43 2 0.430941 0.416085 0.466784
45 1 0.441713 0.420566 0.477317
46 1 0.446721 0.417986 0.485155
47 3 0.453021 0.42498 0.487296
48 1 0.458383 0.422388 0.49489
50 3 0.470453 0.426827 0.5041
49 3 0.464781 0.429379 0.496719
51 2 0.476907 0.433833 0.505651
52 3 0.482576 0.434676 0.497881
54 3 0.494905 0.439883 0.506305
53 2 0.488787 0.441958 0.499133
55 2 0.501032 0.447261 0.507428
56 1 0.507318 0.445296 0.514482
60 3 0.508966 0.475729 0.522253
57 1 0.513302 0.452802 0.515517
58 2 0.50829 0.460458 0.518587
59 2 0.514063 0.468178 0.51907
61 3 0.514483 0.48365 0.522218
62 3 0.52174 0.482646 0.528506
64 3 0.534321 0.490006 0.534738
63 2 0.527001 0.490738 0.528484
65 1 0.539185 0.498341 0.534737
66 3 0.533337 0.50531 0.537959
68 3 0.531408 0.52072 0.54006
67 1 0.537616 0.513927 0.53715
69 1 0.530337 0.520288 0.549645
71 1 0.546015 0.519204 0.551912
70 2 0.538038 0.52426 0.5539
72 1 0.553611 0.523931 0.555542
74 2 0.559756 0.530162 0.568633
73 2 0.553007 0.524186 0.565174
75 2 0.559295 0.53039 0.578274
76 3 0.565058 0.537402 0.581563
77 1 0.564867 0.537557 0.591214
78 3 0.569552 0.545394 0.594348
79 1 0.569745 0.545476 0.604
80 2 0.573317 0.553924 0.607011
82 1 0.585577 0.563753 0.606279
81 1 0.582354 0.554997 0.603802
84 1 0.597442 0.574013 0.604733
83 3 0.594462 0.56505 0.602736
85 3 0.598541 0.575057 0.614268
87 1 0.602711 0.585182 0.625655
86 1 0.601211 0.584134 0.616176
88 3 0.605158 0.594336 0.627502
89 1 0.607102 0.595352 0.636899
90 3 0.609357 0.604562 0.638716
92 3 0.619875 0.600621 0.649738
93 2 0.62241 0.601681 0.658992
91 1 0.61174 0.605523 0.648019
100 1 0.639368 0.608406 0.656184
94 2 0.624396 0.610965 0.660723
95 3 0.627313 0.611979 0.669865
96 3 0.629185 0.621281 0.671636
97 2 0.636359 0.624073 0.665838
99 3 0.641332 0.609261 0.665595
98 1 0.643928 0.618356 0.667532
ITEM: TIMESTEP
500
ITEM: NUMBER OF ATOMS
100
ITEM: BOX BOUNDS ff ff ff
0.0000000000000000e+00 1.5850000000000000e+02
0.0000000000000000e+00 1.5850000000000000e+02
0.0000000000000000e+00 1.5850000000000000e+02
ITEM: ATOMS id type xs ys zs
6 1 0.334208 0.302408 0.296462
7 1 0.338788 0.303677 0.304866
8 3 0.336665 0.296435 0.310888
5 2 0.324705 0.303008 0.297997
4 1 0.322898 0.311528 0.302129
2 3 0.336674 0.310335 0.309634
10 2 0.337691 0.306127 0.323236
11 3 0.342444 0.307982 0.331427
9 1 0.341134 0.298018 0.319292
1 2 0.340953 0.310045 0.318283
3 1 0.327169 0.311602 0.310782
12 3 0.339065 0.316121 0.335365
13 2 0.344038 0.318084 0.343402
14 3 0.340741 0.326254 0.347347
16 3 0.342609 0.336531 0.35914
15 2 0.345931 0.328365 0.355207
17 2 0.347959 0.338819 0.366844
18 3 0.344638 0.34699 0.37077
20 2 0.342334 0.362411 0.368329
19 2 0.345532 0.354191 0.364405
21 3 0.348153 0.365029 0.375572
22 3 0.344979 0.373307 0.379387
24 1 0.347858 0.384548 0.390033
23 2 0.350994 0.376186 0.386368
26 2 0.362565 0.389536 0.392562
27 1 0.368677 0.393243 0.399049
25 1 0.354054 0.387703 0.396731
28 3 0.377168 0.394906 0.394775
29 3 0.38319 0.399247 0.400951
30 2 0.391618 0.400801 0.396516
32 3 0.405826 0.407367 0.397597
31 3 0.397512 0.405855 0.402253
33 2 0.411569 0.41313 0.402797
34 2 0.414246 0.408763 0.410977
36 1 0.409684 0.403979 0.425206
35 1 0.40663 0.407614 0.416798
37 1 0.402283 0.403033 0.43133
38 3 0.405695 0.400128 0.439881
39 3 0.411492 0.407 0.443394
40 1 0.41543 0.404147 0.451736
42 1 0.425732 0.408352 0.463034
41 1 0.421321 0.411109 0.454901
44 3 0.436517 0.412712 0.473786
43 2 0.43173 0.41538 0.465839
45 1 0.442589 0.419788 0.476283
46 1 0.447659 0.417214 0.484087
47 3 0.453777 0.424333 0.486349
48 1 0.459058 0.421829 0.494034
50 3 0.4707 0.426526 0.503662
49 3 0.465216 0.428972 0.496105
51 2 0.476888 0.433694 0.505538
52 3 0.482852 0.434777 0.498025
54 3 0.494801 0.439973 0.506989
53 2 0.4889 0.44212 0.499654
55 2 0.500949 0.447297 0.508326
56 1 0.507021 0.445266 0.515555
60 3 0.509208 0.475845 0.52259
57 1 0.51317 0.452628 0.516661
58 2 0.508286 0.460471 0.519453
59 2 0.514243 0.468055 0.519924
61 3 0.514845 0.483677 0.522382
62 3 0.521744 0.482949 0.5291
64 3 0.533884 0.490709 0.535739
63 2 0.527013 0.49103 0.528965
65 1 0.538644 0.499102 0.53563
66 3 0.532514 0.50615 0.538067
68 3 0.530387 0.521629 0.539385
67 1 0.536759 0.514757 0.537075
69 1 0.528769 0.521502 0.548899
71 1 0.544132 0.51927 0.55206
70 2 0.536519 0.525037 0.553446
72 1 0.551964 0.523544 0.555746
74 2 0.558174 0.529998 0.56865
73 2 0.550972 0.524516 0.565295
75 2 0.557234 0.531182 0.57818
76 3 0.563648 0.537743 0.581191
77 1 0.562799 0.539032 0.590721
78 3 0.568344 0.546461 0.593418
79 1 0.567685 0.547753 0.60296
80 2 0.57231 0.555869 0.605406
82 1 0.586114 0.563424 0.605297
81 1 0.581701 0.555067 0.603322
84 1 0.599714 0.571334 0.604593
83 3 0.595482 0.562792 0.603051
85 3 0.599643 0.573381 0.614027
87 1 0.603896 0.584102 0.624843
86 1 0.603619 0.58207 0.615409
88 3 0.607644 0.592914 0.626087
89 1 0.608253 0.594919 0.635508
90 3 0.611764 0.603844 0.636624
92 3 0.619509 0.600106 0.649829
93 2 0.620732 0.602305 0.659148
91 1 0.612733 0.60583 0.646022
100 1 0.639489 0.605312 0.659946
94 2 0.624153 0.611303 0.659887
95 3 0.62554 0.613476 0.669188
96 3 0.628847 0.622515 0.669925
97 2 0.637496 0.622969 0.665692
99 3 0.639488 0.607869 0.669254
98 1 0.643293 0.616695 0.67016
ITEM: TIMESTEP
600
ITEM: NUMBER OF ATOMS
100
ITEM: BOX BOUNDS ff ff ff
0.0000000000000000e+00 1.5850000000000000e+02
0.0000000000000000e+00 1.5850000000000000e+02
0.0000000000000000e+00 1.5850000000000000e+02
ITEM: ATOMS id type xs ys zs
6 1 0.332237 0.302698 0.297372
7 1 0.337666 0.304336 0.305187
8 3 0.337069 0.296834 0.311231
5 2 0.322989 0.30223 0.300068
4 1 0.32081 0.310442 0.304626
2 3 0.335475 0.310695 0.310337
10 2 0.338647 0.30644 0.32357
11 3 0.344057 0.308596 0.331263
9 1 0.342363 0.298756 0.319064
1 2 0.340809 0.310796 0.318384
3 1 0.326106 0.310869 0.312684
12 3 0.340331 0.316273 0.335776
13 2 0.345838 0.318517 0.34338
14 3 0.342138 0.326207 0.347893
16 3 0.344103 0.336308 0.359836
15 2 0.34777 0.328579 0.355366
17 2 0.349857 0.338828 0.367166
18 3 0.346227 0.346609 0.371576
20 2 0.342583 0.361859 0.369782
19 2 0.346098 0.354016 0.365387
21 3 0.348692 0.364709 0.376691
22 3 0.345213 0.372631 0.380971
24 1 0.348041 0.383773 0.391741
23 2 0.351464 0.375731 0.387644
26 2 0.362548 0.389608 0.393519
27 1 0.36882 0.393505 0.399739
25 1 0.354437 0.387145 0.398138
28 3 0.376944 0.395753 0.395035
29 3 0.383083 0.400222 0.400997
30 2 0.391174 0.402324 0.396168
32 3 0.40514 0.409472 0.396739
31 3 0.397158 0.407427 0.401768
33 2 0.410931 0.415235 0.401881
34 2 0.4142 0.410614 0.409701
36 1 0.410485 0.404883 0.423842
35 1 0.40692 0.40882 0.415781
37 1 0.403375 0.403285 0.430172
38 3 0.407199 0.400066 0.438431
39 3 0.412844 0.406972 0.442124
40 1 0.416995 0.403912 0.450285
42 1 0.427202 0.407999 0.461699
41 1 0.422759 0.410895 0.453633
44 3 0.437759 0.412296 0.472684
43 2 0.43307 0.41505 0.464709
45 1 0.443744 0.419371 0.475392
46 1 0.448648 0.416735 0.483279
47 3 0.454738 0.423823 0.485703
48 1 0.459801 0.421297 0.493525
50 3 0.471186 0.425966 0.503461
49 3 0.465986 0.428384 0.495695
51 2 0.477455 0.433049 0.505387
52 3 0.483719 0.433806 0.498082
54 3 0.495223 0.439285 0.507443
53 2 0.489758 0.441158 0.499709
55 2 0.501212 0.44671 0.508922
56 1 0.506825 0.444975 0.516583
60 3 0.507844 0.475729 0.523115
57 1 0.512718 0.452504 0.517918
58 2 0.507468 0.460266 0.520233
59 2 0.513189 0.468016 0.520855
61 3 0.513325 0.483675 0.522983
62 3 0.519972 0.483194 0.529966
64 3 0.531931 0.491106 0.536724
63 2 0.525308 0.491232 0.529702
65 1 0.537005 0.499306 0.536302
66 3 0.531089 0.506728 0.538062
68 3 0.529651 0.522378 0.538258
67 1 0.535773 0.515067 0.536756
69 1 0.527572 0.523049 0.547661
71 1 0.542526 0.520156 0.552033
70 2 0.535263 0.526506 0.552359
72 1 0.550389 0.524239 0.555866
74 2 0.556308 0.531357 0.568579
73 2 0.548812 0.526325 0.56516
75 2 0.554756 0.533728 0.577808
76 3 0.561826 0.539588 0.580786
77 1 0.560349 0.542133 0.58998
78 3 0.566958 0.548689 0.592533
79 1 0.565598 0.551326 0.601718
80 2 0.571707 0.558478 0.603892
82 1 0.586828 0.562688 0.604909
81 1 0.580807 0.555308 0.603339
84 1 0.601945 0.567112 0.605425
83 3 0.595961 0.559608 0.60438
85 3 0.600928 0.570902 0.614245
87 1 0.605811 0.582415 0.623902
86 1 0.606752 0.578552 0.615105
88 3 0.611526 0.590165 0.624593
89 1 0.610694 0.594074 0.633379
90 3 0.616328 0.601894 0.633936
92 3 0.619212 0.599599 0.649257
93 2 0.618636 0.603502 0.658067
91 1 0.615641 0.60577 0.642749
100 1 0.636159 0.601858 0.664386
94 2 0.624313 0.611297 0.658512
95 3 0.623789 0.615163 0.667341
96 3 0.629425 0.622988 0.667787
97 2 0.63857 0.6202 0.66657
99 3 0.634604 0.606413 0.672754
98 1 0.640674 0.613879 0.673533
ITEM: TIMESTEP
700
ITEM: NUMBER OF ATOMS
100
ITEM: BOX BOUNDS ff ff ff
0.0000000000000000e+00 1.5850000000000000e+02
0.0000000000000000e+00 1.5850000000000000e+02
0.0000000000000000e+00 1.5850000000000000e+02
ITEM: ATOMS id type xs ys zs
6 1 0.331554 0.302842 0.297882
7 1 0.337344 0.304404 0.305448
8 3 0.337142 0.296787 0.311375
5 2 0.322448 0.302298 0.301015
4 1 0.32047 0.310432 0.305792
2 3 0.335393 0.310615 0.310793
10 2 0.338789 0.306277 0.323755
11 3 0.34442 0.308642 0.331222
9 1 0.342623 0.29877 0.31906
1 2 0.341109 0.310517 0.318573
3 1 0.326148 0.310747 0.313589
12 3 0.340577 0.316178 0.33587
13 2 0.346296 0.318673 0.343232
14 3 0.342464 0.32621 0.347887
16 3 0.344484 0.336337 0.359811
15 2 0.348284 0.328792 0.355143
17 2 0.350412 0.339008 0.366946
18 3 0.34666 0.346591 0.371592
20 2 0.34248 0.361734 0.3702
19 2 0.346058 0.35408 0.365533
21 3 0.348749 0.364605 0.376956
22 3 0.34524 0.372362 0.381504
24 1 0.34818 0.383339 0.392414
23 2 0.351631 0.375452 0.388048
26 2 0.362639 0.389366 0.393912
27 1 0.368996 0.393283 0.400034
25 1 0.354694 0.386692 0.398699
28 3 0.376954 0.395748 0.395159
29 3 0.383142 0.400295 0.401008
30 2 0.391044 0.402644 0.395987
32 3 0.404832 0.410156 0.39628
31 3 0.397023 0.407871 0.401475
33 2 0.410575 0.416043 0.401336
34 2 0.414082 0.411473 0.409081
36 1 0.410691 0.405603 0.423263
35 1 0.406944 0.409542 0.415285
37 1 0.403694 0.403848 0.429677
38 3 0.407654 0.400488 0.437814
39 3 0.413276 0.407356 0.441613
40 1 0.417449 0.40415 0.449707
42 1 0.427582 0.408008 0.461249
41 1 0.423169 0.411083 0.45323
44 3 0.438095 0.412039 0.472393
43 2 0.433427 0.414984 0.46447
45 1 0.444056 0.419057 0.475297
46 1 0.448945 0.416251 0.483135
47 3 0.454993 0.423314 0.485739
48 1 0.460069 0.420665 0.493513
50 3 0.471404 0.425277 0.503554
49 3 0.466175 0.427774 0.495832
51 2 0.477543 0.432433 0.505624
52 3 0.483823 0.433422 0.498358
54 3 0.495174 0.439119 0.507808
53 2 0.489682 0.440901 0.500072
55 2 0.501039 0.446645 0.509285
56 1 0.506627 0.445029 0.516989
60 3 0.507491 0.475886 0.523167
57 1 0.512468 0.45261 0.518275
58 2 0.507173 0.460389 0.520434
59 2 0.51288 0.468148 0.521098
61 3 0.512974 0.483824 0.523101
62 3 0.519396 0.48345 0.530299
64 3 0.531201 0.491433 0.537255
63 2 0.524792 0.491449 0.530038
65 1 0.536453 0.499512 0.536711
66 3 0.53066 0.507116 0.538045
68 3 0.529591 0.522798 0.537571
67 1 0.535558 0.515286 0.536476
69 1 0.527414 0.523927 0.546909
71 1 0.542186 0.520665 0.551603
70 2 0.535165 0.527292 0.551579
72 1 0.550132 0.524567 0.555453
74 2 0.556109 0.531795 0.56809
73 2 0.548464 0.527008 0.564643
75 2 0.554443 0.534499 0.577204
76 3 0.561707 0.540091 0.580233
77 1 0.560048 0.543004 0.589287
78 3 0.566887 0.549295 0.591902
79 1 0.565285 0.552325 0.600927
80 2 0.571713 0.559169 0.603166
82 1 0.587015 0.562466 0.604841
81 1 0.580616 0.555433 0.603177
84 1 0.602351 0.565935 0.605968
83 3 0.595945 0.558795 0.604861
85 3 0.601191 0.570066 0.614615
87 1 0.60625 0.581639 0.624094
86 1 0.607406 0.5774 0.615498
88 3 0.612287 0.589139 0.624794
89 1 0.61117 0.593431 0.633368
90 3 0.617101 0.601026 0.633937
92 3 0.619069 0.599246 0.64947
93 2 0.618214 0.603534 0.658074
91 1 0.616107 0.605282 0.642546
100 1 0.635494 0.601466 0.664495
94 2 0.624185 0.611107 0.658512
95 3 0.623426 0.615289 0.667179
96 3 0.629373 0.622877 0.667659
97 2 0.638431 0.619681 0.666862
99 3 0.633658 0.606045 0.67279
98 1 0.639939 0.61329 0.673917
ITEM: TIMESTEP
800
ITEM: NUMBER OF ATOMS
100
ITEM: BOX BOUNDS ff ff ff
0.0000000000000000e+00 1.5850000000000000e+02
0.0000000000000000e+00 1.5850000000000000e+02
0.0000000000000000e+00 1.5850000000000000e+02
ITEM: ATOMS id type xs ys zs
6 1 0.329857 0.302578 0.299113
7 1 0.336247 0.304545 0.306078
8 3 0.337146 0.296938 0.31195
5 2 0.321172 0.301367 0.303132
4 1 0.319081 0.309334 0.308144
2 3 0.33436 0.310632 0.31172
10 2 0.339379 0.306486 0.324207
11 3 0.345492 0.309091 0.331201
9 1 0.343215 0.29927 0.319075
1 2 0.34077 0.311018 0.31893
3 1 0.325435 0.310065 0.315373
12 3 0.341612 0.316285 0.336337
13 2 0.347742 0.31896 0.343297
14 3 0.34383 0.326125 0.348447
16 3 0.346081 0.33606 0.360477
15 2 0.350003 0.328895 0.355332
17 2 0.352324 0.338958 0.367244
18 3 0.348419 0.346144 0.372372
20 2 0.34311 0.360987 0.371735
19 2 0.346864 0.353725 0.366603
21 3 0.349633 0.36414 0.378114
22 3 0.345913 0.371499 0.383134
24 1 0.348832 0.382389 0.394131
23 2 0.352521 0.374889 0.389303
26 2 0.362897 0.389424 0.39487
27 1 0.369372 0.393586 0.400698
25 1 0.355507 0.386037 0.400075
28 3 0.376814 0.39674 0.395422
29 3 0.383082 0.401442 0.401063
30 2 0.390532 0.404423 0.395699
32 3 0.403998 0.412514 0.395591
31 3 0.39658 0.409687 0.401077
33 2 0.409814 0.418343 0.400631
34 2 0.413796 0.413534 0.407993
36 1 0.411157 0.406894 0.42201
35 1 0.406987 0.41111 0.414392
37 1 0.404461 0.404691 0.428604
38 3 0.408785 0.401038 0.436424
39 3 0.414437 0.407819 0.440332
40 1 0.418847 0.404345 0.448185
42 1 0.429081 0.407886 0.459725
41 1 0.424574 0.411196 0.451856
44 3 0.439514 0.411629 0.471018
43 2 0.434898 0.414788 0.46315
45 1 0.445404 0.418583 0.474205
46 1 0.450106 0.415602 0.482092
47 3 0.456036 0.422627 0.48504
48 1 0.460826 0.419849 0.492948
50 3 0.471646 0.424408 0.503581
49 3 0.466775 0.426958 0.495647
51 2 0.477601 0.431603 0.50602
52 3 0.484215 0.432711 0.499077
54 3 0.49484 0.438777 0.509124
53 2 0.489798 0.440336 0.501042
55 2 0.500498 0.446422 0.510781
56 1 0.505629 0.445091 0.518848
60 3 0.506076 0.47619 0.52377
57 1 0.511357 0.452744 0.520197
58 2 0.505925 0.460572 0.521743
59 2 0.511565 0.468389 0.522287
61 3 0.511555 0.484135 0.52346
62 3 0.51779 0.484109 0.530828
64 3 0.529562 0.492279 0.537588
63 2 0.523335 0.491986 0.530217
65 1 0.53511 0.50012 0.536631
66 3 0.529584 0.508009 0.537265
68 3 0.529211 0.523666 0.535741
67 1 0.534871 0.515857 0.535353
69 1 0.526777 0.525527 0.544895
71 1 0.54117 0.521889 0.550391
70 2 0.534517 0.528839 0.54962
72 1 0.549182 0.525633 0.554263
74 2 0.5552 0.533249 0.566648
73 2 0.547328 0.528879 0.563163
75 2 0.553359 0.536793 0.575437
76 3 0.561048 0.541732 0.578551
77 1 0.55921 0.545501 0.587246
78 3 0.566692 0.550943 0.590008
79 1 0.564848 0.554888 0.598624
80 2 0.5721 0.560776 0.601057
82 1 0.587472 0.561693 0.604293
81 1 0.580184 0.555663 0.602366