ITEM: TIMESTEP
0
ITEM: NUMBER OF ATOMS
100
ITEM: BOX BOUNDS pp pp pp
0.0000000000000000e+00 1.0000000000000000e+05
0.0000000000000000e+00 1.0000000000000000e+05
0.0000000000000000e+00 1.0000000000000000e+05
ITEM: ATOMS id type xs ys zs
2 3 0.00286922 0.050161 0.0500552
3 1 0.00731692 0.0499979 0.0499742
4 3 0.0117375 0.0498776 0.0501922
6 2 0.019225 0.0492552 0.0500868
7 2 0.0235127 0.0502588 0.0503976
8 1 0.0278844 0.0496617 0.049685
10 1 0.0363151 0.0489352 0.0500359
14 3 0.0518998 0.0488457 0.0499222
16 2 0.0596346 0.0494809 0.0495143
17 2 0.0640216 0.0492591 0.0503429
19 3 0.0723164 0.0499021 0.0504153
20 2 0.0767192 0.0493716 0.0501052
23 3 0.0875071 0.0501142 0.0490318
25 3 0.0958817 0.0503585 0.0494917
27 1 0.104287 0.0504325 0.0493031
28 2 0.108624 0.0497812 0.0500351
29 3 0.113039 0.0500783 0.0502099
30 3 0.116397 0.0502237 0.0495887
31 3 0.119693 0.0497054 0.0504922
32 3 0.123081 0.0502361 0.0502227
33 1 0.127414 0.049531 0.0495075
35 3 0.135795 0.0491758 0.0496531
37 1 0.14383 0.0491097 0.0497941
39 1 0.151933 0.0498049 0.0491274
41 1 0.160173 0.0504032 0.0488925
43 2 0.167959 0.0499413 0.0493332
45 1 0.175906 0.0487467 0.0500975
47 1 0.184052 0.0494917 0.0496389
48 2 0.188397 0.0503507 0.0502106
49 1 0.1928 0.0497452 0.05012
50 3 0.197224 0.0499653 0.0503222
51 3 0.200581 0.0500457 0.0497088
52 3 0.203925 0.0500922 0.0503779
53 3 0.207227 0.0499769 0.0496822
54 1 0.211624 0.0499621 0.0502109
55 3 0.21604 0.049719 0.0500003
58 1 0.227593 0.0502087 0.0495445
59 3 0.232001 0.0500053 0.0498705
60 1 0.236362 0.0493817 0.0504634
63 1 0.24762 0.0497478 0.0496315
65 3 0.255701 0.04893 0.0499243
67 3 0.264076 0.0494742 0.0495753
69 1 0.272327 0.0495489 0.0488466
71 3 0.279976 0.0495049 0.0497974
72 1 0.284369 0.0504338 0.0493352
74 2 0.291946 0.049324 0.0489254
76 2 0.299947 0.0494593 0.0492776
78 1 0.308184 0.0501913 0.0490695
80 2 0.316284 0.0501096 0.0489049
82 2 0.324773 0.0503634 0.0499985
83 3 0.32913 0.0495116 0.0502509
84 3 0.332488 0.0499405 0.0496806
85 3 0.335838 0.0503296 0.0502775
86 3 0.339188 0.0499456 0.0496728
87 2 0.34357 0.050006 0.0502192
88 3 0.347926 0.050366 0.0494
90 2 0.355332 0.0504475 0.0495052
92 1 0.363801 0.0487641 0.0502421
94 2 0.372059 0.0503011 0.0491421
95 2 0.376212 0.0491191 0.0502718
96 1 0.380458 0.0503684 0.0502682
97 1 0.384883 0.0500342 0.0501029
98 3 0.389298 0.0501612 0.0497674
99 3 0.392697 0.0498172 0.0502664
100 2 0.397174 0.0500273 0.0500413
1 3 0.999408 0.050074 0.0500795
5 3 0.0150364 0.0505385 0.0495106
9 1 0.0321666 0.0505887 0.0504083
11 1 0.0401359 0.051203 0.0496155
13 2 0.0478406 0.0506935 0.0495384
18 2 0.0680822 0.0510253 0.0495682
21 1 0.0808566 0.0509283 0.0494467
34 1 0.131605 0.0507333 0.0502144
36 2 0.139824 0.0509933 0.0504674
46 2 0.179832 0.0509309 0.0502434
56 3 0.219283 0.0507872 0.0497887
61 3 0.240439 0.0510091 0.0495484
64 2 0.25184 0.0511839 0.0498606
66 2 0.259823 0.0506862 0.0501891
91 1 0.359731 0.0505869 0.0502661
93 3 0.367719 0.050853 0.0500703
12 2 0.0438677 0.0490792 0.0509739
22 3 0.0847074 0.0491543 0.0508663
26 2 0.100092 0.0495516 0.0507565
24 2 0.0916286 0.0495369 0.0507236
40 2 0.156102 0.0499541 0.0507697
42 3 0.163919 0.0495812 0.0513
57 2 0.223392 0.0492372 0.0506377
62 3 0.243282 0.0493327 0.0506471
70 1 0.275912 0.0505006 0.0514158
73 3 0.288312 0.050096 0.0514377
77 1 0.304053 0.0504042 0.0508722
79 1 0.312285 0.0500165 0.05091
81 3 0.320383 0.0496643 0.0505524
89 3 0.351076 0.0496359 0.050608
15 1 0.0556605 0.0512117 0.0506373
38 1 0.147874 0.0507332 0.0508149
44 3 0.172104 0.0511383 0.0505707
68 2 0.268314 0.0505129 0.0506688
75 2 0.295829 0.0507874 0.0506316
ITEM: TIMESTEP
100
ITEM: NUMBER OF ATOMS
100
ITEM: BOX BOUNDS pp pp pp
0.0000000000000000e+00 1.0000000000000000e+05
0.0000000000000000e+00 1.0000000000000000e+05
0.0000000000000000e+00 1.0000000000000000e+05
ITEM: ATOMS id type xs ys zs
2 3 0.00282248 0.050167 0.050057
3 1 0.0072894 0.049998 0.0499643
4 3 0.0117448 0.0498441 0.0502295
6 2 0.0192275 0.0491806 0.0500963
7 2 0.0235441 0.0503051 0.050424
8 1 0.0279017 0.0496292 0.0496542
10 1 0.0363319 0.0489013 0.0500348
14 3 0.0519028 0.0488361 0.0499217
16 2 0.0596214 0.0494722 0.0495003
17 2 0.0640265 0.0492428 0.0503565
19 3 0.0723014 0.0498954 0.0504326
20 2 0.0767435 0.0493436 0.0501079
23 3 0.0875109 0.0501205 0.0490185
25 3 0.0958671 0.0503652 0.0494813
27 1 0.104223 0.0504517 0.0492788
28 2 0.10858 0.0497581 0.0500448
29 3 0.113033 0.0500812 0.0502431
30 3 0.116421 0.0502495 0.0495276
31 3 0.119689 0.049666 0.0505359
32 3 0.123093 0.0502746 0.0502309
33 1 0.127433 0.0494867 0.0494741
35 3 0.13581 0.0491562 0.0496454
37 1 0.143829 0.049092 0.0497855
39 1 0.151935 0.0498015 0.0491176
41 1 0.160184 0.0503999 0.0489026
43 2 0.167951 0.0499404 0.049336
45 1 0.175893 0.0487459 0.0500978
47 1 0.184006 0.0494674 0.0496251
48 2 0.188348 0.0503834 0.0502233
49 1 0.192761 0.049719 0.0501088
50 3 0.1972 0.0499695 0.0503677
51 3 0.200569 0.050047 0.0496272
52 3 0.203911 0.0501031 0.0504715
53 3 0.207246 0.0499693 0.0496076
54 1 0.211647 0.0499724 0.0502451
55 3 0.216084 0.0496646 0.0500002
58 1 0.227569 0.0502372 0.0495099
59 3 0.232025 0.0500134 0.0498666
60 1 0.236412 0.0493496 0.0504868
63 1 0.247617 0.0497366 0.0496194
65 3 0.255707 0.0489022 0.0499233
67 3 0.264095 0.0494637 0.0495687
69 1 0.272328 0.0495509 0.0488514
71 3 0.279981 0.0495039 0.0497956
72 1 0.284359 0.0504346 0.0493299
74 2 0.291952 0.0493209 0.0489179
76 2 0.299939 0.0494672 0.0492873
78 1 0.30817 0.050192 0.0490693
80 2 0.316252 0.0501173 0.0488635
82 2 0.324741 0.0503989 0.0499811
83 3 0.329104 0.0494709 0.0502827
84 3 0.332473 0.0499403 0.0496263
85 3 0.335834 0.0503672 0.0503376
86 3 0.33919 0.0499241 0.0496215
87 2 0.343607 0.0499981 0.0502633
88 3 0.347964 0.0503952 0.0493452
90 2 0.355329 0.050458 0.0494758
92 1 0.363798 0.0487036 0.0502443
94 2 0.372047 0.050316 0.0491038
95 2 0.376177 0.0490593 0.0502951
96 1 0.380439 0.0504152 0.0502729
97 1 0.384885 0.0500188 0.0501084
98 3 0.389335 0.0501756 0.049742
99 3 0.392747 0.0498048 0.0502836
100 2 0.397221 0.0500295 0.0500388
1 3 0.99934 0.0500723 0.05008
5 3 0.0150388 0.0506102 0.049462
9 1 0.032204 0.0506247 0.0504264
11 1 0.0401604 0.0512204 0.0496117
13 2 0.0478238 0.0506957 0.0495397
18 2 0.068056 0.0510556 0.0495498
21 1 0.0808785 0.0509602 0.0494284
34 1 0.131661 0.0507712 0.050234
36 2 0.13982 0.0510103 0.0504741
46 2 0.179813 0.0509444 0.0502476
56 3 0.219329 0.0508626 0.0497627
61 3 0.240456 0.0510438 0.0495274
64 2 0.251853 0.0512166 0.0498626
66 2 0.259818 0.0507045 0.0501948
91 1 0.359739 0.0506161 0.0502784
93 3 0.367711 0.0508957 0.0500831
12 2 0.0438763 0.0490804 0.0509725
22 3 0.0847211 0.0491366 0.0508857
26 2 0.100091 0.0495413 0.050773
24 2 0.0916286 0.0495335 0.0507307
40 2 0.156115 0.0499548 0.0507728
42 3 0.163912 0.0495848 0.0512881
57 2 0.223377 0.0491829 0.0506804
62 3 0.243269 0.0493125 0.0506675
70 1 0.275903 0.0505005 0.0514143
73 3 0.288313 0.050097 0.0514492
77 1 0.304049 0.0504016 0.0508653
79 1 0.312262 0.0500155 0.0509288
81 3 0.320368 0.0496443 0.0505885
89 3 0.351089 0.0496042 0.0506569
15 1 0.0556438 0.0512271 0.0506457
38 1 0.147881 0.0507445 0.0508257
44 3 0.17211 0.0511353 0.0505704
68 2 0.268327 0.0505144 0.0506696
75 2 0.295849 0.050783 0.0506273
ITEM: TIMESTEP
200
ITEM: NUMBER OF ATOMS
100
ITEM: BOX BOUNDS pp pp pp
0.0000000000000000e+00 1.0000000000000000e+05
0.0000000000000000e+00 1.0000000000000000e+05
0.0000000000000000e+00 1.0000000000000000e+05
ITEM: ATOMS id type xs ys zs
2 3 0.00278398 0.050172 0.0500586
3 1 0.00727686 0.0499984 0.0499557
4 3 0.0117603 0.0498186 0.0502576
6 2 0.0192313 0.0491351 0.0501025
7 2 0.0235537 0.0503341 0.0504405
8 1 0.0279199 0.0496091 0.0496352
10 1 0.0363465 0.0488865 0.0500335
14 3 0.0519016 0.0488335 0.0499213
16 2 0.059615 0.0494695 0.0494952
17 2 0.0640242 0.0492345 0.0503626
19 3 0.0722994 0.0498922 0.0504391
20 2 0.0767521 0.0493343 0.0501087
23 3 0.0875079 0.0501225 0.0490137
25 3 0.0958568 0.0503723 0.0494704
27 1 0.10419 0.0504732 0.0492502
28 2 0.108554 0.0497385 0.0500535
29 3 0.113033 0.0500834 0.0502699
30 3 0.116433 0.0502713 0.0494769
31 3 0.119693 0.0496337 0.0505723
32 3 0.123109 0.0503032 0.050235
33 1 0.127458 0.0494605 0.049454
35 3 0.135822 0.049142 0.0496398
37 1 0.143831 0.0490882 0.0497838
39 1 0.151935 0.0498009 0.0491161
41 1 0.160184 0.0504 0.0489022
43 2 0.16795 0.04994 0.0493354
45 1 0.175882 0.0487343 0.0500967
47 1 0.183959 0.0494307 0.049605
48 2 0.188297 0.0504264 0.0502406
49 1 0.192726 0.0496854 0.0500928
50 3 0.197197 0.0499763 0.050423
51 3 0.200574 0.0500478 0.0495345
52 3 0.20391 0.0501139 0.050571
53 3 0.207241 0.0499612 0.0495286
54 1 0.21167 0.049985 0.0502832
55 3 0.21614 0.0496128 0.0499987
58 1 0.227562 0.0502561 0.0494874
59 3 0.232038 0.0500182 0.0498644
60 1 0.236438 0.0493299 0.0505009
63 1 0.247619 0.0497341 0.0496157
65 3 0.255708 0.048896 0.049923
67 3 0.264096 0.0494614 0.0495671
69 1 0.272329 0.0495504 0.0488503
71 3 0.279981 0.0495036 0.0497954
72 1 0.284359 0.0504348 0.0493295
74 2 0.291952 0.0493209 0.0489178
76 2 0.299939 0.0494671 0.0492871
78 1 0.308166 0.0501922 0.0490654
80 2 0.316231 0.050122 0.0488405
82 2 0.324714 0.0504316 0.0499645
83 3 0.329085 0.0494338 0.050313
84 3 0.332465 0.0499407 0.0495756
85 3 0.335833 0.0504 0.0503925
86 3 0.339197 0.0499051 0.0495762
87 2 0.343634 0.0499919 0.0503002
88 3 0.347999 0.0504174 0.0493027
90 2 0.355332 0.0504656 0.0494552
92 1 0.363799 0.0486712 0.0502452
94 2 0.372035 0.0503285 0.0490747
95 2 0.376154 0.0490127 0.0503136
96 1 0.380414 0.0504534 0.0502763
97 1 0.384884 0.0500041 0.0501138
98 3 0.389359 0.0501895 0.0497185
99 3 0.392785 0.0497927 0.0503004
100 2 0.397269 0.050032 0.0500361
1 3 0.999287 0.0500708 0.0500803
5 3 0.0150529 0.0506583 0.0494288
9 1 0.0322243 0.0506445 0.0504365
11 1 0.0401663 0.051227 0.0496099
13 2 0.0478235 0.050697 0.0495391
18 2 0.06805 0.0510693 0.0495417
21 1 0.0808878 0.0509697 0.0494232
34 1 0.131681 0.0507938 0.0502453
36 2 0.139826 0.0510178 0.0504773
46 2 0.179783 0.0509698 0.0502552
56 3 0.219369 0.0509293 0.0497402
61 3 0.240472 0.0510624 0.0495162
64 2 0.251858 0.0512243 0.0498631
66 2 0.259818 0.0507082 0.0501958
91 1 0.35975 0.0506326 0.0502865
93 3 0.367693 0.0509197 0.050093
12 2 0.0438774 0.0490785 0.0509739
22 3 0.0847246 0.0491323 0.0508904
26 2 0.100073 0.0495275 0.0507954
24 2 0.0916222 0.0495301 0.050737
40 2 0.156116 0.0499548 0.0507736
42 3 0.163912 0.0495847 0.0512883
57 2 0.22338 0.0491405 0.0507122
62 3 0.243267 0.0493041 0.0506753
70 1 0.275903 0.0505008 0.051415
73 3 0.288314 0.050097 0.0514497
77 1 0.304048 0.0504018 0.0508666
79 1 0.312253 0.0500148 0.0509396
81 3 0.320336 0.0496281 0.0506134
89 3 0.351098 0.049581 0.0506928
15 1 0.0556387 0.0512324 0.0506485
38 1 0.147882 0.0507463 0.0508274
44 3 0.172108 0.0511383 0.0505713
68 2 0.268329 0.0505156 0.0506713
75 2 0.295849 0.0507829 0.0506272
ITEM: TIMESTEP
266
ITEM: NUMBER OF ATOMS
100
ITEM: BOX BOUNDS pp pp pp
0.0000000000000000e+00 1.0000000000000000e+05
0.0000000000000000e+00 1.0000000000000000e+05
0.0000000000000000e+00 1.0000000000000000e+05
ITEM: ATOMS id type xs ys zs
2 3 0.00278075 0.0501725 0.0500588
3 1 0.00727615 0.0499985 0.0499549
4 3 0.0117621 0.0498165 0.0502599
6 2 0.0192319 0.0491319 0.050103
7 2 0.0235545 0.050336 0.0504416
8 1 0.0279212 0.0496079 0.049634
10 1 0.0363473 0.0488857 0.0500334
14 3 0.0519016 0.0488335 0.0499213
16 2 0.0596148 0.0494694 0.0494951
17 2 0.0640241 0.0492343 0.0503628
19 3 0.0722993 0.0498922 0.0504393
20 2 0.0767523 0.0493341 0.0501088
23 3 0.0875074 0.0501227 0.0490133
25 3 0.0958557 0.0503731 0.0494692
27 1 0.104187 0.0504755 0.0492471
28 2 0.108552 0.0497364 0.0500545
29 3 0.113033 0.0500836 0.0502727
30 3 0.116435 0.0502734 0.0494719
31 3 0.119693 0.0496307 0.0505757
32 3 0.123111 0.0503058 0.0502353
33 1 0.12746 0.0494583 0.0494523
35 3 0.135823 0.0491409 0.0496394
37 1 0.143832 0.0490879 0.0497837
39 1 0.151935 0.0498009 0.0491161
41 1 0.160184 0.0504 0.0489022
43 2 0.16795 0.0499399 0.0493352
45 1 0.17588 0.048732 0.0500965
47 1 0.183951 0.049424 0.0496014
48 2 0.188289 0.0504341 0.0502438
49 1 0.192722 0.0496796 0.0500899
50 3 0.197199 0.0499775 0.050432
51 3 0.200577 0.0500479 0.0495204
52 3 0.203911 0.0501154 0.0505852
53 3 0.20724 0.04996 0.0495178
54 1 0.211673 0.0499868 0.0502883
55 3 0.216148 0.0496064 0.0499984
58 1 0.227562 0.0502578 0.0494854
59 3 0.232039 0.0500185 0.0498643
60 1 0.23644 0.0493284 0.050502
63 1 0.247619 0.049734 0.0496156
65 3 0.255708 0.0488959 0.049923
67 3 0.264096 0.0494614 0.0495671
69 1 0.272329 0.0495504 0.0488502
71 3 0.279981 0.0495036 0.0497954
72 1 0.284359 0.0504348 0.0493295
74 2 0.291952 0.0493208 0.0489178
76 2 0.299939 0.0494671 0.049287
78 1 0.308165 0.0501922 0.0490649
80 2 0.316229 0.0501224 0.0488381
82 2 0.324711 0.050435 0.0499627
83 3 0.329083 0.0494299 0.0503162
84 3 0.332465 0.0499408 0.0495703
85 3 0.335834 0.0504033 0.0503982
86 3 0.339198 0.0499032 0.0495716
87 2 0.343637 0.0499913 0.0503038
88 3 0.348002 0.0504195 0.0492988
90 2 0.355332 0.0504662 0.0494535
92 1 0.363799 0.0486684 0.0502453
94 2 0.372033 0.0503298 0.0490717
95 2 0.376151 0.0490074 0.0503156
96 1 0.38041 0.0504579 0.0502767
97 1 0.384884 0.0500023 0.0501145
98 3 0.389362 0.0501913 0.0497155
99 3 0.392789 0.0497911 0.0503025
100 2 0.397275 0.0500324 0.0500357
1 3 0.999282 0.0500706 0.0500803
5 3 0.0150545 0.050662 0.0494262
9 1 0.0322255 0.0506457 0.0504371
11 1 0.0401666 0.0512273 0.0496098
13 2 0.0478235 0.0506971 0.049539
18 2 0.0680499 0.0510696 0.0495415
21 1 0.080888 0.0509699 0.0494231
34 1 0.131683 0.0507956 0.0502462
36 2 0.139826 0.0510183 0.0504775
46 2 0.179778 0.0509745 0.0502566
56 3 0.219374 0.0509369 0.0497377
61 3 0.240473 0.0510636 0.0495154
64 2 0.251858 0.0512245 0.0498631
66 2 0.259818 0.0507083 0.0501959
91 1 0.359751 0.050634 0.0502872
93 3 0.367691 0.0509219 0.050094
12 2 0.0438775 0.0490783 0.050974
22 3 0.0847246 0.0491321 0.0508906
26 2 0.100071 0.049526 0.0507979
24 2 0.0916214 0.0495297 0.0507378
40 2 0.156116 0.0499548 0.0507737
42 3 0.163911 0.0495847 0.0512884
57 2 0.223381 0.0491363 0.0507152
62 3 0.243267 0.0493037 0.0506756
70 1 0.275903 0.0505008 0.051415
73 3 0.288314 0.050097 0.0514497
77 1 0.304047 0.0504019 0.0508668
79 1 0.312252 0.0500147 0.0509407
81 3 0.320333 0.0496264 0.050616
89 3 0.351099 0.049579 0.0506959
15 1 0.0556386 0.0512326 0.0506486
38 1 0.147882 0.0507464 0.0508275
44 3 0.172107 0.051139 0.0505716
68 2 0.268329 0.0505156 0.0506713
75 2 0.295849 0.050783 0.0506272
ITEM: TIMESTEP
300
ITEM: NUMBER OF ATOMS
100
ITEM: BOX BOUNDS pp pp pp
0.0000000000000000e+00 1.0000000000000000e+05
0.0000000000000000e+00 1.0000000000000000e+05
0.0000000000000000e+00 1.0000000000000000e+05
ITEM: ATOMS id type xs ys zs
2 3 0.00277508 0.0501787 0.0500752
3 1 0.00727919 0.0500051 0.0499598
4 3 0.0117536 0.0498201 0.0502538
6 2 0.0192409 0.0491323 0.0501046
7 2 0.0235581 0.0503436 0.050441
8 1 0.0279191 0.0496089 0.049632
10 1 0.0363539 0.0488943 0.0500398
14 3 0.0519122 0.0488301 0.0499216
16 2 0.0596179 0.0494673 0.0494878
17 2 0.0640327 0.0492279 0.0503652
19 3 0.0723051 0.0498897 0.050441
20 2 0.0767497 0.0493378 0.0501079
23 3 0.0875134 0.0501252 0.0490104
25 3 0.0958542 0.0503744 0.0494603
27 1 0.104184 0.0504786 0.0492441
28 2 0.108543 0.0497434 0.0500636
29 3 0.113032 0.0500817 0.050273
30 3 0.116427 0.0502664 0.0494771
32 3 0.123122 0.0503177 0.0502351
33 1 0.127452 0.0494678 0.049455
35 3 0.135816 0.0491352 0.0496448
37 1 0.143832 0.0490858 0.049785
39 1 0.151929 0.049798 0.0491218
41 1 0.160187 0.0503986 0.0489011
43 2 0.167953 0.049934 0.0493349
45 1 0.17588 0.0487302 0.0500974
47 1 0.183947 0.0494208 0.0496001
48 2 0.188292 0.0504348 0.0502519
49 1 0.192738 0.0496763 0.0500841
50 3 0.197199 0.0499789 0.05043
51 3 0.200582 0.0500365 0.0495198
53 3 0.207243 0.0499569 0.0495163
54 1 0.211672 0.049986 0.0502866
55 3 0.21614 0.0495976 0.0500065
58 1 0.227565 0.0502607 0.0494821
59 3 0.232033 0.0500161 0.0498611
60 1 0.236443 0.0493323 0.0505001
63 1 0.247613 0.0497397 0.0496151
65 3 0.255713 0.0488971 0.0499231
67 3 0.264109 0.0494518 0.0495756
69 1 0.272331 0.0495528 0.0488494
71 3 0.279976 0.0495044 0.0497961
72 1 0.284368 0.0504416 0.0493321
74 2 0.291957 0.0493169 0.0489168
76 2 0.299931 0.0494611 0.0492906
78 1 0.308172 0.050188 0.0490716
80 2 0.31623 0.0501256 0.0488363
82 2 0.324705 0.0504292 0.049972
83 3 0.329086 0.049431 0.0503199
84 3 0.332472 0.0499444 0.0495608
85 3 0.335831 0.0503958 0.0503968
86 3 0.339198 0.0499044 0.0495739
87 2 0.343633 0.049988 0.0503109
88 3 0.347999 0.0504193 0.0492946
90 2 0.355333 0.0504753 0.0494544
92 1 0.363795 0.0486678 0.0502497
94 2 0.37203 0.0503309 0.0490751
95 2 0.37615 0.0490068 0.050319
96 1 0.380411 0.0504605 0.0502658
97 1 0.38488 0.0500031 0.0501029
98 3 0.389361 0.0502006 0.0497098
99 3 0.392794 0.0497978 0.0503052
100 2 0.397277 0.0500236 0.050033
1 3 0.99928 0.0500723 0.0500777
5 3 0.0150446 0.0506649 0.0494237
9 1 0.0322317 0.0506514 0.0504301
11 1 0.0401584 0.0512239 0.049617
13 2 0.0478243 0.0506966 0.049533
18 2 0.0680475 0.0510708 0.0495278
21 1 0.0808796 0.0509673 0.0494188
34 1 0.131682 0.0507946 0.0502486
36 2 0.139823 0.0510125 0.0504784
46 2 0.179768 0.0509753 0.0502656
56 3 0.219379 0.0509302 0.0497342
61 3 0.240479 0.0510736 0.0495093
64 2 0.251849 0.0512156 0.0498644
66 2 0.259823 0.050712 0.0501927
91 1 0.359754 0.0506315 0.0502854
93 3 0.367682 0.0509154 0.0500985
12 2 0.043879 0.0490808 0.0509673
22 3 0.0847321 0.0491272 0.0508933
26 2 0.100073 0.0495237 0.0507954
24 2 0.0916208 0.0495243 0.0507331
31 3 0.119694 0.0496336 0.0505699
40 2 0.156119 0.0499564 0.0507642
42 3 0.163906 0.0495849 0.0512863
52 3 0.20391 0.0501123 0.0505918
57 2 0.223385 0.049129 0.0507221
62 3 0.243265 0.049319 0.05068
70 1 0.275905 0.0505016 0.0514091
73 3 0.28831 0.0500967 0.0514513
77 1 0.304045 0.0504011 0.050873
79 1 0.312246 0.050017 0.0509429
81 3 0.320333 0.0496271 0.0506234
89 3 0.351095 0.0495733 0.0506988
15 1 0.055652 0.0512349 0.0506431
38 1 0.147891 0.0507589 0.0508363
44 3 0.172111 0.0511387 0.050577
68 2 0.268337 0.050521 0.050667
75 2 0.295843 0.0507752 0.0506275
ITEM: TIMESTEP
400
ITEM: NUMBER OF ATOMS
100
ITEM: BOX BOUNDS pp pp pp
0.0000000000000000e+00 1.0000000000000000e+05
0.0000000000000000e+00 1.0000000000000000e+05
0.0000000000000000e+00 1.0000000000000000e+05
ITEM: ATOMS id type xs ys zs
2 3 0.00276699 0.0501969 0.0501239
3 1 0.00727198 0.0500254 0.049974
4 3 0.0117363 0.0498302 0.0502368
6 2 0.0192514 0.0491383 0.0501068
7 2 0.0235679 0.0503675 0.0504401
8 1 0.0279222 0.049613 0.0496266
10 1 0.0363618 0.0489111 0.05006
14 3 0.0519391 0.0488258 0.0499225
16 2 0.0596372 0.0494587 0.0494661
17 2 0.0640506 0.0492083 0.0503715
19 3 0.0723065 0.0498858 0.0504447
20 2 0.0767435 0.0493461 0.0501056
23 3 0.0875243 0.0501323 0.0490017
25 3 0.0958529 0.0503772 0.0494357
27 1 0.104173 0.0504887 0.0492337
28 2 0.108524 0.049764 0.0500914
29 3 0.113017 0.0500753 0.0502752
30 3 0.116412 0.0502455 0.0494918
32 3 0.123132 0.0503543 0.0502379
33 1 0.127444 0.0494941 0.0494609
35 3 0.1358 0.0491175 0.0496609
37 1 0.143842 0.0490844 0.0497921
39 1 0.151916 0.0497879 0.049137
41 1 0.160193 0.0503956 0.0488934
43 2 0.16796 0.0499168 0.0493369
45 1 0.175876 0.048721 0.0500997
47 1 0.183936 0.0494155 0.0495987
48 2 0.188303 0.050433 0.0502745
49 1 0.192762 0.0496674 0.0500661
50 3 0.197212 0.0499838 0.0504244
51 3 0.200593 0.0500025 0.0495181
53 3 0.207244 0.0499479 0.0495126
54 1 0.211667 0.049984 0.0502827
55 3 0.216131 0.0495754 0.0500296
58 1 0.227565 0.0502688 0.0494725
59 3 0.232028 0.0500076 0.0498533
60 1 0.23645 0.0493469 0.0504922
63 1 0.247591 0.049755 0.0496124
65 3 0.255723 0.0489039 0.0499233
67 3 0.264136 0.0494249 0.0496014
69 1 0.272339 0.0495583 0.0488431
71 3 0.279979 0.0495077 0.0497944
72 1 0.284378 0.0504603 0.0493371
74 2 0.291957 0.0493038 0.0489147
76 2 0.299915 0.0494436 0.0493024
78 1 0.308176 0.0501764 0.0490897
80 2 0.316228 0.0501347 0.0488346
82 2 0.324696 0.0504115 0.0499992
83 3 0.329094 0.0494365 0.050329
84 3 0.332481 0.0499533 0.0495322
85 3 0.335831 0.0503745 0.0503945
86 3 0.339196 0.0499078 0.0495801
87 2 0.343628 0.0499783 0.050332
88 3 0.34799 0.0504179 0.0492839
90 2 0.35533 0.0505012 0.0494589
92 1 0.363784 0.0486607 0.050263
94 2 0.37202 0.0503338 0.049087
95 2 0.376148 0.0490065 0.0503283
96 1 0.380408 0.050468 0.0502336
97 1 0.384873 0.0500052 0.0500682
98 3 0.38936 0.0502278 0.0496939
99 3 0.392799 0.0498182 0.0503123
100 2 0.397284 0.0499975 0.0500247
1 3 0.999271 0.050077 0.0500698
5 3 0.0150313 0.0506689 0.0494184
9 1 0.0322423 0.0506676 0.0504082
11 1 0.0401476 0.0512217 0.0496372
13 2 0.0478357 0.0506918 0.0495154
18 2 0.0680511 0.051073 0.0494884
21 1 0.0808716 0.0509561 0.0494096
34 1 0.131675 0.050792 0.0502559
36 2 0.139813 0.0509933 0.0504805
46 2 0.179749 0.0509779 0.0502916
56 3 0.219386 0.0509051 0.0497249
61 3 0.240488 0.0511039 0.0494904
64 2 0.251831 0.0511883 0.0498686
66 2 0.259842 0.0507201 0.0501819
91 1 0.359755 0.0506266 0.05028
93 3 0.367665 0.0508987 0.0501109
12 2 0.0438822 0.0490877 0.0509478
22 3 0.0847456 0.0491191 0.0508948
26 2 0.100072 0.0495174 0.0507875
24 2 0.0916245 0.0495078 0.0507203
31 3 0.119703 0.0496444 0.0505509
40 2 0.156121 0.049961 0.0507363
42 3 0.1639 0.0495849 0.0512812
52 3 0.203915 0.0501028 0.0506109
57 2 0.223398 0.049109 0.0507411
62 3 0.243258 0.049362 0.0506956
70 1 0.275909 0.0505061 0.0513955
73 3 0.288312 0.050094 0.0514566
77 1 0.304038 0.0503974 0.0508868
79 1 0.312244 0.0500236 0.0509511
81 3 0.320324 0.0496285 0.0506451
89 3 0.351086 0.0495583 0.0507042
15 1 0.0556841 0.0512419 0.0506274
38 1 0.147899 0.0507933 0.0508626
44 3 0.172118 0.0511378 0.0505924
68 2 0.268359 0.0505388 0.0506572
75 2 0.29583 0.0507556 0.0506322
ITEM: TIMESTEP
500
ITEM: NUMBER OF ATOMS
100
ITEM: BOX BOUNDS pp pp pp
0.0000000000000000e+00 1.0000000000000000e+05
0.0000000000000000e+00 1.0000000000000000e+05
0.0000000000000000e+00 1.0000000000000000e+05
ITEM: ATOMS id type xs ys zs
2 3 0.00276543 0.0502169 0.0501775
3 1 0.00723943 0.050049 0.0499888
4 3 0.0117333 0.0498403 0.0502194
6 2 0.0192352 0.049156 0.0501046
7 2 0.0235727 0.0503941 0.0504397
8 1 0.0279402 0.0496193 0.0496217
10 1 0.0363476 0.048909 0.0500851
14 3 0.0519585 0.0488346 0.0499231
16 2 0.0596738 0.0494458 0.0494419
17 2 0.0640635 0.0491879 0.0503763
19 3 0.0722813 0.0498869 0.0504467
20 2 0.0767396 0.0493498 0.0501038
23 3 0.087522 0.0501386 0.0489943
25 3 0.0958575 0.0503778 0.0494122
27 1 0.104162 0.050502 0.0492193
28 2 0.108513 0.0497862 0.0501235
29 3 0.112988 0.0500675 0.0502792
30 3 0.11641 0.0502216 0.0495083
32 3 0.123107 0.0503976 0.0502465
33 1 0.127456 0.0495168 0.049462
35 3 0.135792 0.049097 0.0496785
37 1 0.143865 0.0490959 0.049807
39 1 0.151912 0.0497747 0.0491503
41 1 0.160196 0.0503953 0.0488754
43 2 0.167967 0.0498994 0.0493461
45 1 0.175867 0.0487043 0.0501015
47 1 0.183935 0.0494224 0.0496042
48 2 0.188311 0.0504208 0.0502941
49 1 0.19275 0.0496602 0.0500459
50 3 0.197243 0.0499905 0.0504199
51 3 0.200605 0.0499649 0.0495158
53 3 0.207231 0.0499381 0.0495089
54 1 0.211662 0.0499825 0.0502801
55 3 0.216148 0.0495585 0.0500527
58 1 0.227551 0.0502769 0.0494627
59 3 0.232043 0.0499959 0.0498473
60 1 0.236457 0.04937 0.0504789
63 1 0.247568 0.0497691 0.0496053
65 3 0.255733 0.0489198 0.0499239
67 3 0.264146 0.0493989 0.049631
69 1 0.272354 0.0495594 0.0488255
71 3 0.280007 0.0495129 0.0497875
72 1 0.284362 0.0504782 0.049339
74 2 0.291936 0.0492856 0.0489114
76 2 0.299917 0.0494258 0.0493189
78 1 0.308153 0.0501647 0.0491076
80 2 0.316223 0.0501439 0.0488392
82 2 0.324707 0.0503905 0.0500291
83 3 0.329103 0.0494473 0.0503351
84 3 0.332467 0.0499597 0.049501
85 3 0.335836 0.0503531 0.050396
86 3 0.339197 0.0499108 0.0495852
87 2 0.343631 0.0499683 0.0503544
88 3 0.347984 0.0504131 0.0492779
90 2 0.355312 0.0505262 0.0494691
92 1 0.363772 0.0486402 0.0502782
94 2 0.37201 0.0503353 0.0491038
95 2 0.376141 0.0490099 0.0503362
96 1 0.380396 0.0504756 0.0501982
97 1 0.384878 0.0500074 0.0500291
98 3 0.389367 0.0502559 0.0496794
99 3 0.392791 0.0498424 0.0503177
100 2 0.397293 0.0499688 0.0500154
1 3 0.99926 0.0500823 0.050061
5 3 0.0150476 0.050663 0.0494169
9 1 0.0322371 0.0506856 0.0503827
11 1 0.0401619 0.0512389 0.0496551
13 2 0.0478658 0.0506776 0.0494981
18 2 0.0680669 0.0510706 0.0494483
21 1 0.080897 0.0509361 0.049407
34 1 0.131666 0.0507929 0.0502656
36 2 0.139808 0.0509664 0.0504806
46 2 0.179754 0.0509792 0.050318
56 3 0.219381 0.0508647 0.049719
61 3 0.240479 0.0511373 0.049469
64 2 0.251832 0.0511574 0.0498742
66 2 0.259873 0.0507206 0.0501674
91 1 0.359743 0.0506271 0.0502735
93 3 0.367664 0.050886 0.0501227
12 2 0.0438897 0.0490942 0.0509268
22 3 0.0847437 0.0491244 0.0508821
26 2 0.100056 0.0495111 0.050778
24 2 0.0916384 0.0494891 0.0507083
31 3 0.119716 0.0496597 0.0505268
40 2 0.156116 0.0499653 0.0507085
42 3 0.163913 0.0495834 0.0512775
52 3 0.203927 0.050092 0.0506302
57 2 0.223409 0.0490925 0.0507582
62 3 0.243245 0.0494032 0.0507198
70 1 0.275911 0.050515 0.051389
73 3 0.288332 0.0500884 0.0514621
77 1 0.304029 0.0503895 0.0508919
79 1 0.312266 0.0500304 0.050963
81 3 0.320302 0.0496291 0.0506683
89 3 0.351083 0.0495482 0.0507008
15 1 0.0557051 0.0512472 0.0506103
38 1 0.147879 0.0508248 0.0508898
44 3 0.172114 0.0511362 0.0506073
68 2 0.268376 0.0505627 0.0506532
75 2 0.295824 0.050741 0.0506455
ITEM: TIMESTEP
600
ITEM: NUMBER OF ATOMS
100
ITEM: BOX BOUNDS pp pp pp
0.0000000000000000e+00 1.0000000000000000e+05
0.0000000000000000e+00 1.0000000000000000e+05
0.0000000000000000e+00 1.0000000000000000e+05
ITEM: ATOMS id type xs ys zs
2 3 0.00274521 0.0502368 0.0502308
3 1 0.00722274 0.0500716 0.050003
4 3 0.0117333 0.0498517 0.0502007
6 2 0.0192323 0.0491795 0.0501032
7 2 0.023569 0.0504144 0.0504366
8 1 0.0279447 0.0496256 0.0496174
10 1 0.0363355 0.0488994 0.0501101
14 3 0.0519772 0.0488498 0.0499241
16 2 0.0597003 0.0494367 0.04942
17 2 0.0640904 0.0491736 0.0503786
19 3 0.0722646 0.049886 0.0504499
20 2 0.0767363 0.0493548 0.0501017
23 3 0.0875189 0.0501422 0.0489922
25 3 0.0958601 0.0503781 0.0493895
27 1 0.10415 0.0505147 0.0492057
28 2 0.108493 0.0498078 0.0501548
29 3 0.112975 0.0500606 0.0502818
30 3 0.116404 0.0501971 0.0495271
32 3 0.123097 0.0504426 0.0502537
33 1 0.127447 0.049534 0.0494599
35 3 0.135786 0.049077 0.0496961
37 1 0.143878 0.0491139 0.0498243
39 1 0.151889 0.0497638 0.0491647
41 1 0.160203 0.0503955 0.0488554
43 2 0.167978 0.0498836 0.0493573
45 1 0.175863 0.0486918 0.0501037
47 1 0.183949 0.0494411 0.0496165
48 2 0.188299 0.0504003 0.0503084
49 1 0.192742 0.0496559 0.0500277
50 3 0.197247 0.049996 0.0504173
51 3 0.200632 0.0499278 0.0495115
53 3 0.207222 0.0499282 0.0495034
54 1 0.211667 0.0499803 0.0502774
55 3 0.21616 0.0495439 0.0500758
58 1 0.227549 0.0502839 0.0494542
59 3 0.232048 0.0499847 0.0498406
60 1 0.236466 0.0493953 0.0504641
63 1 0.247554 0.0497824 0.0495941
65 3 0.255759 0.0489408 0.0499253
67 3 0.264154 0.0493754 0.0496615
69 1 0.272367 0.0495573 0.0488004
71 3 0.280018 0.0495171 0.0497842
72 1 0.284368 0.0504973 0.0493456
74 2 0.29192 0.0492659 0.0489033
76 2 0.299923 0.049409 0.0493369
78 1 0.308139 0.050153 0.049129
80 2 0.316222 0.0501532 0.0488416
82 2 0.324712 0.0503668 0.0500607
83 3 0.32911 0.0494597 0.0503399
84 3 0.332455 0.0499661 0.0494722
85 3 0.335826 0.0503326 0.0503983
86 3 0.339207 0.0499125 0.0495881
87 2 0.343639 0.0499588 0.0503754
88 3 0.347985 0.0504045 0.0492786
90 2 0.355289 0.050549 0.0494823
92 1 0.363762 0.0486162 0.0502932
94 2 0.372008 0.0503344 0.0491222
95 2 0.37613 0.0490161 0.0503419
96 1 0.380389 0.0504816 0.0501631
97 1 0.384882 0.0500108 0.0499902
98 3 0.389372 0.0502825 0.0496667
99 3 0.392787 0.0498673 0.0503211
100 2 0.397291 0.0499401 0.050007
1 3 0.999256 0.0500877 0.0500526
5 3 0.0150613 0.0506545 0.0494173
9 1 0.0322289 0.0507084 0.050359
11 1 0.0401736 0.0512649 0.0496692
13 2 0.0478941 0.050658 0.0494843
18 2 0.0680643 0.0510641 0.0494102
21 1 0.0809197 0.0509151 0.0494051
34 1 0.131674 0.0507999 0.050279
36 2 0.139813 0.0509336 0.0504785
46 2 0.179766 0.0509717 0.0503413
56 3 0.219388 0.0508178 0.0497168
61 3 0.240462 0.0511696 0.049448
64 2 0.251838 0.0511294 0.04988
66 2 0.259893 0.050714 0.0501516
91 1 0.359722 0.0506298 0.0502666
93 3 0.367664 0.0508752 0.0501346
12 2 0.0439134 0.0490984 0.0509064
22 3 0.0847463 0.0491318 0.0508659
26 2 0.100043 0.0495051 0.0507681
24 2 0.0916496 0.0494716 0.0506941
31 3 0.119714 0.0496727 0.050503
40 2 0.156114 0.0499694 0.0506859
42 3 0.163927 0.049582 0.0512732
52 3 0.203931 0.0500815 0.0506498
57 2 0.223406 0.0490823 0.0507715
62 3 0.24322 0.0494411 0.0507486
70 1 0.275926 0.0505242 0.051385
73 3 0.288334 0.0500854 0.0514664
77 1 0.304016 0.0503807 0.050895
79 1 0.312274 0.0500374 0.0509732
81 3 0.320291 0.0496317 0.0506895
89 3 0.351077 0.0495436 0.0506895
15 1 0.055728 0.0512453 0.0505902
38 1 0.147866 0.0508524 0.050912
44 3 0.172106 0.0511328 0.0506205
68 2 0.268383 0.0505868 0.0506511
75 2 0.295819 0.050727 0.0506592
ITEM: TIMESTEP
700
ITEM: NUMBER OF ATOMS
100
ITEM: BOX BOUNDS pp pp pp
0.0000000000000000e+00 1.0000000000000000e+05
0.0000000000000000e+00 1.0000000000000000e+05
0.0000000000000000e+00 1.0000000000000000e+05
ITEM: ATOMS id type xs ys zs
2 3 0.00271971 0.0502563 0.0502824
3 1 0.00722987 0.0500923 0.0500167
4 3 0.0117271 0.0498653 0.0501803
6 2 0.0192581 0.0492011 0.0501053
7 2 0.0235655 0.0504269 0.0504297
8 1 0.0279219 0.0496312 0.0496139
10 1 0.0363454 0.0488997 0.0501316
14 3 0.0520034 0.0488608 0.049926
16 2 0.0597157 0.0494333 0.0494029
17 2 0.0641177 0.0491615 0.0503796
19 3 0.0722698 0.0498812 0.0504544
20 2 0.0767336 0.0493655 0.0500986
23 3 0.08753 0.0501448 0.0489931
25 3 0.0958556 0.0503797 0.0493657
27 1 0.104134 0.0505254 0.0491949
28 2 0.108467 0.0498282 0.0501842
29 3 0.112977 0.0500546 0.0502827
30 3 0.116383 0.0501744 0.0495452
32 3 0.123111 0.0504873 0.0502579
33 1 0.127422 0.0495498 0.0494578
35 3 0.135785 0.0490576 0.0497128
37 1 0.143881 0.0491273 0.0498384
39 1 0.151854 0.0497564 0.0491824