ITEM: TIMESTEP
0
ITEM: NUMBER OF ATOMS
100
ITEM: BOX BOUNDS ff ff ff
0.0000000000000000e+00 1.5850000000000000e+02
0.0000000000000000e+00 1.5850000000000000e+02
0.0000000000000000e+00 1.5850000000000000e+02
ITEM: ATOMS id type xs ys zs
1 2 0.242773 0.24886 0.24778
2 3 0.244331 0.251878 0.256747
3 1 0.252703 0.256364 0.256896
4 1 0.254553 0.259987 0.265803
5 2 0.263499 0.263478 0.266588
6 1 0.264458 0.267611 0.275218
7 1 0.27323 0.271652 0.275912
8 3 0.2735 0.27636 0.284234
9 1 0.28181 0.281391 0.28499
10 2 0.282634 0.285215 0.293875
11 3 0.29092 0.290268 0.294197
12 3 0.292296 0.294598 0.30278
13 2 0.300761 0.299107 0.302014
14 3 0.30325 0.302067 0.310816
15 2 0.311538 0.306783 0.310323
16 3 0.313127 0.310641 0.318963
17 2 0.321514 0.315446 0.318852
18 3 0.322842 0.3192 0.327647
19 2 0.330743 0.324875 0.327829
20 2 0.33168 0.329042 0.336328
21 3 0.339052 0.335327 0.336873
22 3 0.339628 0.339345 0.34565
23 2 0.347358 0.345194 0.346393
24 1 0.347564 0.349459 0.35504
25 1 0.355086 0.355396 0.355364
26 2 0.356059 0.358991 0.364131
27 1 0.364404 0.363898 0.364498
28 3 0.364691 0.369004 0.37272
29 3 0.372921 0.374127 0.372679
30 2 0.373892 0.378721 0.381067
31 3 0.382212 0.383461 0.381568
32 3 0.382975 0.387641 0.390321
33 2 0.391607 0.392 0.390819
34 2 0.392547 0.396846 0.399186
35 1 0.40175 0.39939 0.400377
36 1 0.402534 0.404333 0.408527
37 1 0.411774 0.407182 0.410031
38 3 0.411323 0.412603 0.41788
39 3 0.420109 0.415821 0.420224
40 1 0.419336 0.421719 0.427863
41 1 0.428144 0.424457 0.430533
42 1 0.427952 0.430529 0.438004
43 2 0.436972 0.433454 0.43975
44 3 0.437171 0.440404 0.446581
45 1 0.446231 0.443231 0.448285
46 1 0.44654 0.450009 0.45513
47 3 0.455852 0.452478 0.456648
48 1 0.456024 0.459409 0.463464
49 3 0.464931 0.461756 0.465517
50 3 0.465014 0.469495 0.471415
51 2 0.474288 0.470888 0.473872
52 3 0.475008 0.479193 0.478759
53 2 0.483856 0.479568 0.482511
54 3 0.484796 0.487768 0.487608
55 2 0.493551 0.488096 0.491793
56 1 0.493865 0.495904 0.497263
57 1 0.502809 0.497018 0.500875
58 2 0.50353 0.505475 0.50541
59 2 0.512217 0.506694 0.509498
60 3 0.51271 0.515688 0.513198
61 3 0.521335 0.516451 0.517366
62 3 0.521805 0.525222 0.521307
63 2 0.530396 0.526211 0.525429
64 3 0.530611 0.534332 0.530655
65 1 0.539508 0.535357 0.533743
66 3 0.540241 0.543519 0.53896
67 1 0.549069 0.544311 0.542593
68 3 0.549171 0.551871 0.548533
69 1 0.557989 0.552447 0.55245
70 2 0.558339 0.559438 0.558882
71 1 0.56739 0.560477 0.562124
72 1 0.567069 0.567379 0.56902
73 2 0.576157 0.568494 0.572796
74 2 0.575985 0.5759 0.578941
75 2 0.584688 0.577129 0.582941
76 3 0.584189 0.584524 0.589007
77 1 0.592976 0.586546 0.591909
78 3 0.592384 0.594236 0.597858
79 1 0.601169 0.595387 0.601972
80 2 0.601022 0.602528 0.608346
81 1 0.609806 0.603616 0.612115
82 1 0.609615 0.611449 0.617558
83 3 0.618281 0.613105 0.621449
84 1 0.617979 0.62086 0.627041
85 3 0.626946 0.622998 0.629545
86 1 0.627064 0.630924 0.634934
87 1 0.636071 0.633434 0.637182
88 3 0.635772 0.640911 0.643307
89 1 0.644659 0.643549 0.646007
90 3 0.644021 0.651516 0.651506
91 1 0.652675 0.653664 0.655083
92 3 0.652393 0.661704 0.660646
93 2 0.661066 0.662911 0.664454
94 2 0.660411 0.670357 0.670439
95 3 0.668977 0.672197 0.674328
96 3 0.667899 0.679633 0.680508
97 2 0.676301 0.681124 0.685142
98 1 0.674851 0.688534 0.691212
99 3 0.682851 0.690228 0.696242
100 1 0.681301 0.697569 0.702304
ITEM: TIMESTEP
100
ITEM: NUMBER OF ATOMS
100
ITEM: BOX BOUNDS ff ff ff
0.0000000000000000e+00 1.5850000000000000e+02
0.0000000000000000e+00 1.5850000000000000e+02
0.0000000000000000e+00 1.5850000000000000e+02
ITEM: ATOMS id type xs ys zs
1 2 0.242907 0.248253 0.247522
2 3 0.244252 0.25157 0.256488
3 1 0.252756 0.256107 0.257004
4 1 0.254067 0.259522 0.265939
5 2 0.262539 0.264121 0.266392
6 1 0.263821 0.267691 0.275267
7 1 0.272215 0.272447 0.275585
8 3 0.273528 0.276212 0.284373
9 1 0.281887 0.281035 0.284517
10 2 0.283254 0.284899 0.293249
11 3 0.291624 0.289701 0.293281
12 3 0.293072 0.293639 0.301973
13 2 0.301493 0.29835 0.301991
14 3 0.302966 0.302254 0.31069
15 2 0.311375 0.306976 0.310701
16 3 0.312694 0.310984 0.319375
17 2 0.321024 0.315845 0.319474
18 3 0.322121 0.319985 0.32812
19 2 0.330319 0.325064 0.328339
20 2 0.330993 0.329475 0.336893
21 3 0.339074 0.334732 0.337213
22 3 0.339472 0.339343 0.345679
23 2 0.347536 0.34462 0.346135
24 1 0.347752 0.349408 0.354508
25 1 0.355882 0.354574 0.354978
26 2 0.356108 0.359443 0.3633
27 1 0.364425 0.364292 0.363857
28 3 0.364751 0.36924 0.372127
29 3 0.373279 0.37372 0.372742
30 2 0.373724 0.378688 0.380992
31 3 0.382464 0.382692 0.381764
32 3 0.382967 0.387684 0.390002
33 2 0.391868 0.391254 0.391022
34 2 0.392301 0.396296 0.399225
35 1 0.401309 0.399464 0.400572
36 1 0.401577 0.404633 0.408705
37 1 0.410601 0.407594 0.410377
38 3 0.410674 0.413 0.418362
39 3 0.419694 0.415856 0.420238
40 1 0.419594 0.421613 0.427972
41 1 0.428593 0.424441 0.429958
42 1 0.428411 0.430663 0.437321
43 2 0.43743 0.433423 0.439314
44 3 0.437282 0.440095 0.446268
45 1 0.446351 0.442721 0.448212
46 1 0.446337 0.449745 0.45481
47 3 0.455469 0.452171 0.456718
48 1 0.455635 0.459398 0.463092
49 3 0.464817 0.461542 0.465094
50 3 0.465094 0.468875 0.471354
51 2 0.474289 0.470697 0.473592
52 3 0.474642 0.478094 0.479761
53 2 0.483813 0.479664 0.482272
54 3 0.48416 0.487113 0.488381
55 2 0.49329 0.488593 0.491091
56 1 0.493579 0.496152 0.497065
57 1 0.502682 0.497687 0.499832
58 2 0.502921 0.505445 0.505547
59 2 0.512002 0.507055 0.508343
60 3 0.512236 0.514983 0.513812
61 3 0.521335 0.516622 0.516606
62 3 0.52161 0.5246 0.521995
63 2 0.530682 0.526135 0.524862
64 3 0.530953 0.53403 0.530384
65 1 0.539976 0.53536 0.533492
66 3 0.540241 0.543087 0.539248
67 1 0.549174 0.544106 0.542712
68 3 0.54936 0.55163 0.54873
69 1 0.558218 0.552473 0.552431
70 2 0.558316 0.559841 0.558643
71 1 0.567117 0.560661 0.56249
72 1 0.567101 0.567971 0.568775
73 2 0.575879 0.568896 0.572647
74 2 0.575768 0.576287 0.578835
75 2 0.58452 0.577334 0.582728
76 3 0.584314 0.584786 0.588843
77 1 0.593061 0.586028 0.592691
78 3 0.592795 0.593551 0.598717
79 1 0.60156 0.594914 0.602482
80 2 0.60127 0.602505 0.60842
81 1 0.610073 0.604035 0.612037
82 1 0.609829 0.611796 0.617756
83 3 0.618681 0.613512 0.621174
84 1 0.618481 0.621441 0.626654
85 3 0.627394 0.623333 0.62981
86 1 0.627209 0.631406 0.635075
87 1 0.636132 0.633435 0.638127
88 3 0.635912 0.641537 0.643354
89 1 0.644787 0.643605 0.646524
90 3 0.644407 0.651641 0.651844
91 1 0.653176 0.653632 0.655338
92 3 0.652605 0.661465 0.660937
93 2 0.661238 0.663332 0.664821
94 2 0.660439 0.670927 0.670714
95 3 0.668932 0.672678 0.674941
96 3 0.66792 0.680071 0.681063
97 2 0.676305 0.68174 0.685536
98 1 0.675195 0.689028 0.691766
99 3 0.683534 0.690666 0.696343
100 1 0.682389 0.697906 0.702623
ITEM: TIMESTEP
200
ITEM: NUMBER OF ATOMS
100
ITEM: BOX BOUNDS ff ff ff
0.0000000000000000e+00 1.5850000000000000e+02
0.0000000000000000e+00 1.5850000000000000e+02
0.0000000000000000e+00 1.5850000000000000e+02
ITEM: ATOMS id type xs ys zs
1 2 0.242574 0.247528 0.247724
2 3 0.243851 0.25135 0.256496
3 1 0.252433 0.255753 0.256866
4 1 0.253703 0.259606 0.265624
5 2 0.262296 0.263984 0.265982
6 1 0.263557 0.267893 0.274716
7 1 0.272153 0.272265 0.275057
8 3 0.273392 0.276258 0.283755
9 1 0.281995 0.280618 0.284076
10 2 0.283208 0.284701 0.292735
11 3 0.291806 0.289072 0.293035
12 3 0.292961 0.293282 0.301642
13 2 0.301544 0.297681 0.301935
14 3 0.302602 0.302029 0.310483
15 2 0.311163 0.306466 0.310808
16 3 0.312061 0.310988 0.319283
17 2 0.320582 0.315497 0.319657
18 3 0.321276 0.320243 0.328029
19 2 0.329761 0.324813 0.328468
20 2 0.330245 0.329771 0.33673
21 3 0.338698 0.334393 0.33724
22 3 0.338993 0.339548 0.345393
23 2 0.347436 0.344178 0.345974
24 1 0.347598 0.349481 0.35403
25 1 0.356087 0.354012 0.354707
26 2 0.356195 0.359405 0.362704
27 1 0.36478 0.363728 0.36351
28 3 0.364888 0.369146 0.371489
29 3 0.3736 0.373175 0.372482
30 2 0.373736 0.378538 0.380498
31 3 0.382564 0.38223 0.381707
32 3 0.382728 0.38753 0.389769
33 2 0.391655 0.390902 0.39117
34 2 0.391843 0.39618 0.39924
35 1 0.400846 0.399266 0.400806
36 1 0.401022 0.404619 0.408826
37 1 0.41006 0.407529 0.410516
38 3 0.410182 0.413075 0.418404
39 3 0.419234 0.415917 0.420158
40 1 0.419306 0.42172 0.427861
41 1 0.428355 0.424559 0.429609
42 1 0.428397 0.430642 0.437093
43 2 0.437451 0.433491 0.438802
44 3 0.437485 0.439856 0.446048
45 1 0.44655 0.442693 0.447715
46 1 0.446596 0.449291 0.454749
47 3 0.455686 0.452035 0.456432
48 1 0.455776 0.458801 0.463303
49 3 0.464902 0.461388 0.465044
50 3 0.465059 0.468284 0.47179
51 2 0.47422 0.470682 0.473619
52 3 0.474443 0.477657 0.480274
53 2 0.483627 0.479883 0.482206
54 3 0.483896 0.486938 0.488775
55 2 0.493089 0.489048 0.490785
56 1 0.493375 0.496224 0.497221
57 1 0.50257 0.498274 0.499284
58 2 0.50286 0.505586 0.505567
59 2 0.512047 0.507593 0.507711
60 3 0.512323 0.51501 0.513868
61 3 0.5215 0.516938 0.516137
62 3 0.521762 0.5244 0.522244
63 2 0.530912 0.526214 0.524692
64 3 0.531131 0.533665 0.530812
65 1 0.540237 0.535343 0.533511
66 3 0.540372 0.542721 0.539722
67 1 0.549412 0.544207 0.542738
68 3 0.549463 0.551469 0.549084
69 1 0.558427 0.552773 0.552399
70 2 0.558395 0.559944 0.55885
71 1 0.567286 0.561114 0.562401
72 1 0.567169 0.568236 0.568905
73 2 0.576 0.569347 0.572622
74 2 0.575817 0.576489 0.579104
75 2 0.584619 0.577642 0.582877
76 3 0.584405 0.584894 0.589236
77 1 0.593211 0.586171 0.59296
78 3 0.592997 0.593584 0.599129
79 1 0.601826 0.595018 0.602742
80 2 0.601627 0.602622 0.608675
81 1 0.610484 0.604234 0.612143
82 1 0.610294 0.612041 0.617807
83 3 0.619171 0.613832 0.621133
84 1 0.618965 0.621802 0.626567
85 3 0.627845 0.623735 0.62981
86 1 0.627595 0.631794 0.635109
87 1 0.636452 0.633797 0.638373
88 3 0.636128 0.641866 0.643655
89 1 0.64493 0.64387 0.647064
90 3 0.644494 0.651879 0.652429
91 1 0.653211 0.653823 0.656081
92 3 0.652633 0.661697 0.66163
93 2 0.661249 0.663525 0.665574
94 2 0.660532 0.671232 0.671337
95 3 0.66905 0.672931 0.675545
96 3 0.668215 0.680483 0.681497
97 2 0.676657 0.682084 0.685892
98 1 0.675742 0.689532 0.691962
99 3 0.684143 0.691091 0.696451
100 1 0.683192 0.698495 0.70257
ITEM: TIMESTEP
300
ITEM: NUMBER OF ATOMS
100
ITEM: BOX BOUNDS ff ff ff
0.0000000000000000e+00 1.5850000000000000e+02
0.0000000000000000e+00 1.5850000000000000e+02
0.0000000000000000e+00 1.5850000000000000e+02
ITEM: ATOMS id type xs ys zs
1 2 0.242283 0.246801 0.247663
2 3 0.243284 0.251485 0.256044
3 1 0.252243 0.255016 0.256711
4 1 0.253242 0.259704 0.26509
5 2 0.262191 0.263264 0.265753
6 1 0.263174 0.267961 0.274128
7 1 0.272113 0.271546 0.274793
8 3 0.273059 0.276276 0.283154
9 1 0.281982 0.279894 0.283842
10 2 0.282851 0.2847 0.292168
11 3 0.291753 0.288363 0.292887
12 3 0.292527 0.293284 0.301156
13 2 0.301398 0.297016 0.301894
14 3 0.302065 0.302074 0.310087
15 2 0.310895 0.305904 0.310822
16 3 0.311447 0.311116 0.318926
17 2 0.320224 0.315063 0.319659
18 3 0.320637 0.32043 0.32767
19 2 0.329365 0.324479 0.32842
20 2 0.32965 0.329989 0.336339
21 3 0.338346 0.334102 0.337112
22 3 0.338531 0.339723 0.344956
23 2 0.347221 0.343838 0.345781
24 1 0.347336 0.349515 0.353584
25 1 0.356046 0.353564 0.354515
26 2 0.356095 0.359253 0.362311
27 1 0.364847 0.363171 0.363403
28 3 0.364865 0.368827 0.371224
29 3 0.373682 0.372544 0.372488
30 2 0.373711 0.378149 0.380345
31 3 0.382594 0.381646 0.381757
32 3 0.382656 0.387196 0.389655
33 2 0.391602 0.390467 0.391208
34 2 0.391682 0.395971 0.399136
35 1 0.400669 0.399073 0.4008
36 1 0.400757 0.40462 0.408698
37 1 0.409775 0.407607 0.410404
38 3 0.40989 0.413247 0.418235
39 3 0.418939 0.416135 0.419951
40 1 0.41908 0.421928 0.427668
41 1 0.428142 0.424792 0.42935
42 1 0.428272 0.430801 0.436901
43 2 0.437338 0.433662 0.438563
44 3 0.437455 0.439866 0.445955
45 1 0.446533 0.442695 0.447601
46 1 0.446668 0.449087 0.45483
47 3 0.455764 0.451885 0.456433
48 1 0.45593 0.45844 0.463513
49 3 0.465043 0.461194 0.465094
50 3 0.465233 0.467868 0.472063
51 2 0.474362 0.470559 0.473658
52 3 0.474574 0.477334 0.480527
53 2 0.483723 0.479942 0.482144
54 3 0.483975 0.486829 0.488899
55 2 0.493147 0.489336 0.49055
56 1 0.493432 0.496318 0.497205
57 1 0.502619 0.498708 0.498942
58 2 0.502913 0.505752 0.505532
59 2 0.512102 0.508042 0.507387
60 3 0.512374 0.51513 0.51393
61 3 0.521559 0.517333 0.515918
62 3 0.521807 0.524428 0.52246
63 2 0.530978 0.526506 0.524632
64 3 0.531169 0.533556 0.531219
65 1 0.540309 0.535499 0.533635
66 3 0.540417 0.542496 0.540282
67 1 0.549512 0.544304 0.542955
68 3 0.549522 0.55124 0.549665
69 1 0.558561 0.552913 0.552606
70 2 0.55847 0.559776 0.559391
71 1 0.567451 0.561329 0.562563
72 1 0.567282 0.568165 0.569374
73 2 0.576224 0.569669 0.572676
74 2 0.576011 0.576554 0.579435
75 2 0.584932 0.578067 0.58279
76 3 0.58469 0.585052 0.589444
77 1 0.5936 0.586642 0.592792
78 3 0.593339 0.593798 0.599262
79 1 0.602255 0.595543 0.602515
80 2 0.60199 0.60291 0.608743
81 1 0.610916 0.604814 0.611878
82 1 0.610643 0.612363 0.617884
83 3 0.61957 0.614394 0.620936
84 1 0.619265 0.622086 0.626757
85 3 0.628175 0.624228 0.629786
86 1 0.627801 0.632011 0.635482
87 1 0.636672 0.634204 0.638589
88 3 0.636215 0.642 0.644261
89 1 0.645035 0.644165 0.64753
90 3 0.644496 0.651909 0.653265
91 1 0.653259 0.653996 0.656734
92 3 0.652633 0.661651 0.662581
93 2 0.661332 0.663662 0.666249
94 2 0.660611 0.671217 0.672213
95 3 0.66925 0.673159 0.676054
96 3 0.668457 0.680625 0.682122
97 2 0.677059 0.682502 0.686077
98 1 0.676241 0.689924 0.692195
99 3 0.684835 0.691769 0.696185
100 1 0.684024 0.699193 0.702301
ITEM: TIMESTEP
400
ITEM: NUMBER OF ATOMS
100
ITEM: BOX BOUNDS ff ff ff
0.0000000000000000e+00 1.5850000000000000e+02
0.0000000000000000e+00 1.5850000000000000e+02
0.0000000000000000e+00 1.5850000000000000e+02
ITEM: ATOMS id type xs ys zs
1 2 0.242379 0.246547 0.247606
2 3 0.243236 0.251548 0.255816
3 1 0.252299 0.254745 0.256705
4 1 0.253163 0.259763 0.264905
5 2 0.26222 0.262981 0.265792
6 1 0.263065 0.268015 0.273984
7 1 0.272114 0.271259 0.274856
8 3 0.272925 0.276336 0.283026
9 1 0.281952 0.279635 0.283914
10 2 0.282692 0.284785 0.292042
11 3 0.291694 0.288148 0.292942
12 3 0.292354 0.293415 0.301005
13 2 0.30132 0.296873 0.301913
14 3 0.301874 0.302265 0.309899
15 2 0.310803 0.305817 0.310802
16 3 0.311245 0.311335 0.318708
17 2 0.320123 0.315009 0.319628
18 3 0.32043 0.320661 0.327444
19 2 0.329264 0.324431 0.328386
20 2 0.329465 0.330189 0.336129
21 3 0.338272 0.334012 0.337115
22 3 0.338378 0.339847 0.344803
23 2 0.347177 0.343675 0.345834
24 1 0.347223 0.349549 0.353491
25 1 0.35603 0.353328 0.354627
26 2 0.356026 0.359201 0.362285
27 1 0.364868 0.36286 0.363552
28 3 0.364852 0.368705 0.371234
29 3 0.373737 0.372202 0.372644
30 2 0.373725 0.378 0.38036
31 3 0.382658 0.381321 0.381887
32 3 0.382676 0.387069 0.389642
33 2 0.391649 0.390221 0.39129
34 2 0.391687 0.395929 0.399073
35 1 0.400694 0.398936 0.400805
36 1 0.400746 0.40467 0.40857
37 1 0.409776 0.407576 0.410349
38 3 0.409845 0.413377 0.418062
39 3 0.418902 0.416194 0.419855
40 1 0.419005 0.422105 0.427485
41 1 0.428075 0.424887 0.429259
42 1 0.428195 0.430954 0.436763
43 2 0.437276 0.433722 0.438498
44 3 0.437404 0.439955 0.445867
45 1 0.446498 0.442711 0.447559
46 1 0.446649 0.449107 0.454787
47 3 0.455757 0.451849 0.456417
48 1 0.455951 0.458393 0.463506
49 3 0.465072 0.461126 0.465089
50 3 0.465293 0.467799 0.472059
51 2 0.474428 0.470495 0.473621
52 3 0.474664 0.477266 0.480493
53 2 0.483813 0.479905 0.482069
54 3 0.484066 0.486772 0.488846
55 2 0.49323 0.489344 0.49045
56 1 0.493505 0.496284 0.497151
57 1 0.502678 0.498769 0.498838
58 2 0.502948 0.505744 0.505502
59 2 0.512124 0.508136 0.507299
60 3 0.512367 0.515129 0.51395
61 3 0.521531 0.517428 0.51589
62 3 0.521748 0.524399 0.522567
63 2 0.530908 0.526574 0.524687
64 3 0.531073 0.533485 0.531423
65 1 0.540212 0.535527 0.533758
66 3 0.540311 0.54237 0.540565
67 1 0.549418 0.544287 0.543124
68 3 0.54943 0.551066 0.549996
69 1 0.558496 0.55287 0.552772
70 2 0.558422 0.559596 0.559693
71 1 0.567446 0.561321 0.56265
72 1 0.567303 0.568041 0.569577
73 2 0.576299 0.56974 0.572639
74 2 0.576102 0.576511 0.579514
75 2 0.585074 0.578242 0.58262
76 3 0.584829 0.585108 0.589399
77 1 0.593787 0.586933 0.592494
78 3 0.593501 0.593942 0.599124
79 1 0.60245 0.595906 0.602157
80 2 0.602138 0.603081 0.608604
81 1 0.611085 0.605173 0.611555
82 1 0.610745 0.612503 0.617827
83 3 0.619684 0.614708 0.620723
84 1 0.619301 0.622161 0.626843
85 3 0.628219 0.62446 0.629731
86 1 0.627774 0.631988 0.635756
87 1 0.63666 0.634339 0.638697
88 3 0.636147 0.641882 0.644698
89 1 0.645002 0.644222 0.647742
90 3 0.644416 0.651731 0.653782
91 1 0.653232 0.654029 0.656972
92 3 0.652575 0.661473 0.663082
93 2 0.661344 0.66372 0.666428
94 2 0.660611 0.671086 0.672623
95 3 0.66934 0.67328 0.676111
96 3 0.668553 0.68058 0.682378
97 2 0.677259 0.682725 0.685953
98 1 0.676445 0.689988 0.692257
99 3 0.685142 0.692111 0.695867
100 1 0.684328 0.699366 0.702184
ITEM: TIMESTEP
411
ITEM: NUMBER OF ATOMS
100
ITEM: BOX BOUNDS ff ff ff
0.0000000000000000e+00 1.5850000000000000e+02
0.0000000000000000e+00 1.5850000000000000e+02
0.0000000000000000e+00 1.5850000000000000e+02
ITEM: ATOMS id type xs ys zs
1 2 0.242379 0.246547 0.247606
2 3 0.243236 0.251548 0.255816
3 1 0.252299 0.254745 0.256705
4 1 0.253163 0.259763 0.264905
5 2 0.26222 0.262981 0.265792
6 1 0.263065 0.268015 0.273984
7 1 0.272114 0.271259 0.274856
8 3 0.272925 0.276336 0.283026
9 1 0.281952 0.279635 0.283914
10 2 0.282692 0.284785 0.292042
11 3 0.291694 0.288148 0.292942
12 3 0.292354 0.293415 0.301005
13 2 0.30132 0.296873 0.301913
14 3 0.301874 0.302265 0.309899
15 2 0.310803 0.305817 0.310802
16 3 0.311245 0.311335 0.318708
17 2 0.320123 0.315009 0.319628
18 3 0.32043 0.320661 0.327444
19 2 0.329264 0.324431 0.328386
20 2 0.329465 0.330189 0.336129
21 3 0.338272 0.334012 0.337115
22 3 0.338378 0.339847 0.344803
23 2 0.347177 0.343675 0.345834
24 1 0.347223 0.349549 0.353491
25 1 0.35603 0.353328 0.354627
26 2 0.356026 0.359201 0.362285
27 1 0.364868 0.36286 0.363552
28 3 0.364852 0.368705 0.371234
29 3 0.373737 0.372202 0.372644
30 2 0.373725 0.378 0.38036
31 3 0.382658 0.381321 0.381887
32 3 0.382676 0.387069 0.389642
33 2 0.391649 0.390221 0.39129
34 2 0.391687 0.395929 0.399073
35 1 0.400694 0.398936 0.400805
36 1 0.400746 0.40467 0.40857
37 1 0.409776 0.407576 0.410349
38 3 0.409845 0.413377 0.418062
39 3 0.418902 0.416194 0.419855
40 1 0.419005 0.422105 0.427485
41 1 0.428075 0.424887 0.429259
42 1 0.428195 0.430954 0.436763
43 2 0.437276 0.433722 0.438498
44 3 0.437404 0.439955 0.445867
45 1 0.446498 0.442711 0.447559
46 1 0.446649 0.449107 0.454787
47 3 0.455757 0.451849 0.456417
48 1 0.455951 0.458393 0.463506
49 3 0.465072 0.461126 0.465089
50 3 0.465293 0.467799 0.472059
51 2 0.474428 0.470495 0.473621
52 3 0.474664 0.477266 0.480493
53 2 0.483813 0.479905 0.482069
54 3 0.484066 0.486772 0.488846
55 2 0.49323 0.489344 0.49045
56 1 0.493505 0.496284 0.497151
57 1 0.502678 0.498769 0.498838
58 2 0.502948 0.505744 0.505502
59 2 0.512124 0.508136 0.507299
60 3 0.512367 0.515129 0.51395
61 3 0.521531 0.517428 0.51589
62 3 0.521748 0.524399 0.522567
63 2 0.530908 0.526574 0.524687
64 3 0.531073 0.533485 0.531423
65 1 0.540212 0.535527 0.533758
66 3 0.540311 0.54237 0.540565
67 1 0.549418 0.544287 0.543124
68 3 0.54943 0.551066 0.549996
69 1 0.558496 0.55287 0.552772
70 2 0.558422 0.559596 0.559693
71 1 0.567446 0.561321 0.56265
72 1 0.567303 0.568041 0.569577
73 2 0.576299 0.56974 0.572639
74 2 0.576102 0.576511 0.579514
75 2 0.585074 0.578242 0.58262
76 3 0.584829 0.585108 0.589399
77 1 0.593787 0.586933 0.592494
78 3 0.593501 0.593942 0.599124
79 1 0.60245 0.595906 0.602157
80 2 0.602138 0.603081 0.608604
81 1 0.611085 0.605173 0.611555
82 1 0.610745 0.612503 0.617827
83 3 0.619684 0.614708 0.620723
84 1 0.619301 0.622161 0.626843
85 3 0.628219 0.62446 0.629731
86 1 0.627774 0.631988 0.635756
87 1 0.63666 0.634339 0.638697
88 3 0.636147 0.641882 0.644698
89 1 0.645002 0.644222 0.647742
90 3 0.644416 0.651731 0.653782
91 1 0.653232 0.654029 0.656972
92 3 0.652575 0.661473 0.663082
93 2 0.661344 0.66372 0.666428
94 2 0.660611 0.671086 0.672623
95 3 0.66934 0.67328 0.676111
96 3 0.668553 0.68058 0.682378
97 2 0.677259 0.682725 0.685953
98 1 0.676445 0.689988 0.692257
99 3 0.685142 0.692111 0.695867
100 1 0.684328 0.699366 0.702184
