ITEM: TIMESTEP
0
ITEM: NUMBER OF ATOMS
100
ITEM: BOX BOUNDS pp pp pp
0.0000000000000000e+00 1.5850000000000000e+02
0.0000000000000000e+00 1.5850000000000000e+02
0.0000000000000000e+00 1.5850000000000000e+02
ITEM: ATOMS id type xs ys zs
1 2 0.243237 0.248193 0.247766
2 2 0.24416 0.252553 0.256255
3 3 0.253058 0.255736 0.257016
4 2 0.254376 0.260521 0.265444
5 1 0.263581 0.263002 0.266853
6 2 0.264144 0.268122 0.274986
7 3 0.273233 0.27127 0.276187
8 2 0.273289 0.276645 0.284094
9 3 0.281947 0.280969 0.28519
10 2 0.282419 0.285499 0.293758
11 2 0.29106 0.289874 0.294354
12 2 0.292099 0.294918 0.302613
13 1 0.300892 0.298804 0.302032
14 1 0.30291 0.302501 0.31069
15 1 0.311534 0.306599 0.310478
16 1 0.312673 0.311174 0.318841
17 1 0.321397 0.315339 0.319043
18 3 0.322333 0.319721 0.327588
19 2 0.330706 0.324649 0.32807
20 1 0.331226 0.329513 0.336236
21 1 0.339185 0.334983 0.337073
22 1 0.33936 0.339716 0.345589
23 1 0.347648 0.344643 0.346731
24 3 0.347377 0.349624 0.354979
25 3 0.355536 0.354785 0.355684
26 2 0.355999 0.359081 0.364154
27 2 0.364703 0.36328 0.364893
28 2 0.364669 0.369196 0.372582
29 1 0.373253 0.373536 0.37291
30 3 0.373954 0.378918 0.380845
31 1 0.382616 0.382929 0.381738
32 2 0.383057 0.387954 0.389915
33 3 0.392011 0.391514 0.390896
34 2 0.392698 0.397251 0.398708
35 1 0.401993 0.398936 0.400552
36 3 0.402603 0.404784 0.408087
37 3 0.411904 0.406858 0.410253
38 1 0.411285 0.413132 0.417426
39 2 0.420127 0.415432 0.420594
40 1 0.419285 0.422234 0.427442
41 2 0.428018 0.424073 0.431032
42 1 0.427752 0.430953 0.437759
43 3 0.436779 0.43313 0.440318
44 2 0.436956 0.440827 0.446298
45 1 0.446022 0.442958 0.448796
46 2 0.446321 0.450496 0.454801
47 1 0.455644 0.452367 0.456995
48 3 0.455792 0.459935 0.463069
49 3 0.464677 0.461708 0.465873
50 2 0.464933 0.469874 0.471044
51 1 0.47407 0.470765 0.474162
52 1 0.475119 0.479426 0.478356
53 1 0.483677 0.479409 0.482784
54 2 0.484983 0.487993 0.487131
55 2 0.493321 0.487926 0.492123
56 2 0.49402 0.496286 0.496671
57 2 0.502593 0.496875 0.501187
58 2 0.503802 0.505687 0.504838
59 3 0.511989 0.506451 0.509918
60 3 0.513141 0.515639 0.512748
61 3 0.521176 0.516061 0.517997
62 3 0.522208 0.525144 0.520992
63 3 0.53026 0.525691 0.526191
64 1 0.530923 0.534382 0.530306
65 3 0.539467 0.534893 0.534341
66 3 0.54067 0.543655 0.538437
67 1 0.549117 0.543969 0.54294
68 2 0.549635 0.552258 0.547817
69 1 0.558033 0.552256 0.552637
70 1 0.558726 0.560043 0.558065
71 1 0.567452 0.560336 0.562256
72 1 0.567325 0.567922 0.568401
73 3 0.576008 0.568282 0.573134
74 1 0.576226 0.576273 0.578477
75 1 0.58455 0.576821 0.583364
76 3 0.58434 0.584859 0.588585
77 2 0.592928 0.586269 0.592299
78 3 0.592621 0.594544 0.59741
79 2 0.601022 0.595173 0.602332
80 2 0.601135 0.602943 0.607907
81 3 0.609563 0.603494 0.612508
82 1 0.609671 0.611796 0.617208
83 3 0.617962 0.612904 0.622033
84 1 0.617868 0.621202 0.626807
85 1 0.626663 0.622778 0.630172
86 1 0.627003 0.63128 0.634596
87 3 0.635914 0.633142 0.637724
88 2 0.635795 0.641294 0.642927
89 3 0.644516 0.643248 0.646546
90 1 0.644206 0.651813 0.651079
91 1 0.652495 0.653286 0.655729
92 3 0.652678 0.661993 0.660203
93 3 0.660951 0.662599 0.66487
94 1 0.660647 0.670686 0.669986
95 2 0.668896 0.671878 0.674699
96 3 0.668083 0.679879 0.680233
97 1 0.676094 0.680774 0.685625
98 1 0.674977 0.688792 0.690959
99 3 0.682553 0.689872 0.69678
100 2 0.681345 0.697843 0.702088
ITEM: TIMESTEP
100
ITEM: NUMBER OF ATOMS
100
ITEM: BOX BOUNDS pp pp pp
0.0000000000000000e+00 1.5850000000000000e+02
0.0000000000000000e+00 1.5850000000000000e+02
0.0000000000000000e+00 1.5850000000000000e+02
ITEM: ATOMS id type xs ys zs
1 2 0.24334 0.247642 0.24743
2 2 0.244126 0.251774 0.256125
3 3 0.252912 0.255678 0.257046
4 2 0.253754 0.259923 0.265686
5 1 0.262551 0.263828 0.266511
6 2 0.263452 0.268206 0.275065
7 3 0.27226 0.272095 0.275663
8 2 0.273225 0.276629 0.28412
9 3 0.282066 0.280453 0.284596
10 2 0.283105 0.285177 0.292945
11 2 0.291944 0.289028 0.293387
12 2 0.292908 0.293869 0.301678
13 1 0.301743 0.297728 0.302157
14 1 0.30257 0.302736 0.310371
15 1 0.311381 0.306636 0.310982
16 1 0.312056 0.311729 0.31916
17 1 0.320842 0.315653 0.319859
18 3 0.321302 0.320817 0.327994
19 2 0.330068 0.324759 0.328791
20 1 0.330341 0.330126 0.336801
21 1 0.339045 0.334184 0.337714
22 1 0.339093 0.339765 0.345583
23 1 0.347756 0.343909 0.346503
24 3 0.347649 0.349684 0.354234
25 3 0.356319 0.353784 0.355298
26 2 0.356195 0.359699 0.362927
27 2 0.364972 0.36353 0.364065
28 2 0.364929 0.369427 0.371699
29 1 0.373828 0.372923 0.372989
30 3 0.373894 0.378872 0.380575
31 1 0.382915 0.381943 0.382043
32 2 0.383046 0.387943 0.389589
33 3 0.392144 0.390641 0.391276
34 2 0.392264 0.396673 0.398792
35 1 0.40138 0.399069 0.400821
36 3 0.401427 0.405182 0.40827
37 3 0.410545 0.407276 0.410628
38 1 0.410489 0.413572 0.417927
39 2 0.419553 0.415577 0.420546
40 1 0.419399 0.422141 0.427607
41 2 0.42843 0.424135 0.430326
42 1 0.428241 0.431117 0.436971
43 3 0.437262 0.433095 0.439703
44 2 0.437106 0.440451 0.445923
45 1 0.446153 0.442412 0.448588
46 2 0.446177 0.45006 0.454443
47 1 0.455269 0.451845 0.457094
48 3 0.455483 0.459666 0.46273
49 3 0.464594 0.461267 0.465472
50 2 0.465003 0.469156 0.47101
51 1 0.474107 0.470473 0.47392
52 1 0.47458 0.478386 0.479405
53 1 0.483641 0.479526 0.482495
54 2 0.484086 0.487466 0.487932
55 2 0.493091 0.488509 0.491196
56 2 0.49352 0.496529 0.496525
57 2 0.502485 0.497581 0.499923
58 2 0.50293 0.505702 0.505116
59 3 0.511872 0.506827 0.508545
60 3 0.512342 0.515086 0.513526
61 3 0.521318 0.516162 0.516932
62 3 0.521881 0.524485 0.521782
63 3 0.5308 0.525592 0.525291
64 1 0.531318 0.533929 0.530116
65 3 0.540158 0.534782 0.533874
66 3 0.540661 0.543008 0.538885
67 1 0.549337 0.543675 0.543027
68 2 0.549734 0.551786 0.548227
69 1 0.558288 0.552256 0.552653
70 1 0.558661 0.560276 0.557986
71 1 0.567109 0.560619 0.562627
72 1 0.56742 0.56862 0.568002
73 3 0.575803 0.56894 0.572764
74 1 0.576078 0.576905 0.578196
75 1 0.584405 0.577224 0.583052
76 3 0.58457 0.585246 0.588394
77 2 0.592876 0.585695 0.593267
78 3 0.592965 0.593827 0.598447
79 2 0.601342 0.594572 0.603171
80 2 0.601428 0.602848 0.608129
81 3 0.609873 0.603862 0.61268
82 1 0.609922 0.61229 0.617373
83 3 0.618452 0.613457 0.621713
84 1 0.618573 0.621978 0.626228
85 1 0.627175 0.623264 0.630397
86 1 0.627308 0.631859 0.634777
87 3 0.635954 0.633275 0.638819
88 2 0.636099 0.641905 0.643133
89 3 0.64473 0.643345 0.647202
90 1 0.644712 0.651922 0.651623
91 1 0.653208 0.653402 0.655944
92 3 0.652926 0.6618 0.660681
93 3 0.661263 0.663095 0.665356
94 1 0.660734 0.671279 0.670437
95 2 0.668854 0.67249 0.675506
96 3 0.668142 0.680477 0.680885
97 1 0.676185 0.681553 0.686117
98 1 0.675415 0.689428 0.691653
99 3 0.683417 0.690472 0.696953
100 2 0.682593 0.698324 0.70251
ITEM: TIMESTEP
105
ITEM: NUMBER OF ATOMS
100
ITEM: BOX BOUNDS pp pp pp
0.0000000000000000e+00 1.5850000000000000e+02
0.0000000000000000e+00 1.5850000000000000e+02
0.0000000000000000e+00 1.5850000000000000e+02
ITEM: ATOMS id type xs ys zs
1 2 0.24334 0.247642 0.24743
2 2 0.244126 0.251774 0.256125
3 3 0.252912 0.255678 0.257046
4 2 0.253754 0.259923 0.265686
5 1 0.262551 0.263828 0.266511
6 2 0.263452 0.268206 0.275065
7 3 0.27226 0.272095 0.275663
8 2 0.273225 0.276629 0.28412
9 3 0.282066 0.280453 0.284596
10 2 0.283105 0.285177 0.292945
11 2 0.291944 0.289028 0.293387
12 2 0.292908 0.293869 0.301678
13 1 0.301743 0.297728 0.302157
14 1 0.30257 0.302736 0.310371
15 1 0.311381 0.306636 0.310982
16 1 0.312056 0.311729 0.31916
17 1 0.320842 0.315653 0.319859
18 3 0.321302 0.320817 0.327994
19 2 0.330068 0.324759 0.328791
20 1 0.330341 0.330126 0.336801
21 1 0.339045 0.334184 0.337714
22 1 0.339093 0.339765 0.345583
23 1 0.347756 0.343909 0.346503
24 3 0.347649 0.349684 0.354234
25 3 0.356319 0.353784 0.355298
26 2 0.356195 0.359699 0.362927
27 2 0.364972 0.36353 0.364065
28 2 0.364929 0.369427 0.371699
29 1 0.373828 0.372923 0.372989
30 3 0.373894 0.378872 0.380575
31 1 0.382915 0.381943 0.382043
32 2 0.383046 0.387943 0.389589
33 3 0.392144 0.390641 0.391276
34 2 0.392264 0.396673 0.398792
35 1 0.40138 0.399069 0.400821
36 3 0.401427 0.405182 0.40827
37 3 0.410545 0.407276 0.410628
38 1 0.410489 0.413572 0.417927
39 2 0.419553 0.415577 0.420546
40 1 0.419399 0.422141 0.427607
41 2 0.42843 0.424135 0.430326
42 1 0.428241 0.431117 0.436971
43 3 0.437262 0.433095 0.439703
44 2 0.437106 0.440451 0.445923
45 1 0.446153 0.442412 0.448588
46 2 0.446177 0.45006 0.454443
47 1 0.455269 0.451845 0.457094
48 3 0.455483 0.459666 0.46273
49 3 0.464594 0.461267 0.465472
50 2 0.465003 0.469156 0.47101
51 1 0.474107 0.470473 0.47392
52 1 0.47458 0.478386 0.479405
53 1 0.483641 0.479526 0.482495
54 2 0.484086 0.487466 0.487932
55 2 0.493091 0.488509 0.491196
56 2 0.49352 0.496529 0.496525
57 2 0.502485 0.497581 0.499923
58 2 0.50293 0.505702 0.505116
59 3 0.511872 0.506827 0.508545
60 3 0.512342 0.515086 0.513526
61 3 0.521318 0.516162 0.516932
62 3 0.521881 0.524485 0.521782
63 3 0.5308 0.525592 0.525291
64 1 0.531318 0.533929 0.530116
65 3 0.540158 0.534782 0.533874
66 3 0.540661 0.543008 0.538885
67 1 0.549337 0.543675 0.543027
68 2 0.549734 0.551786 0.548227
69 1 0.558288 0.552256 0.552653
70 1 0.558661 0.560276 0.557986
71 1 0.567109 0.560619 0.562627
72 1 0.56742 0.56862 0.568002
73 3 0.575803 0.56894 0.572764
74 1 0.576078 0.576905 0.578196
75 1 0.584405 0.577224 0.583052
76 3 0.58457 0.585246 0.588394
77 2 0.592876 0.585695 0.593267
78 3 0.592965 0.593827 0.598447
79 2 0.601342 0.594572 0.603171
80 2 0.601428 0.602848 0.608129
81 3 0.609873 0.603862 0.61268
82 1 0.609922 0.61229 0.617373
83 3 0.618452 0.613457 0.621713
84 1 0.618573 0.621978 0.626228
85 1 0.627175 0.623264 0.630397
86 1 0.627308 0.631859 0.634777
87 3 0.635954 0.633275 0.638819
88 2 0.636099 0.641905 0.643133
89 3 0.64473 0.643345 0.647202
90 1 0.644712 0.651922 0.651623
91 1 0.653208 0.653402 0.655944
92 3 0.652926 0.6618 0.660681
93 3 0.661263 0.663095 0.665356
94 1 0.660734 0.671279 0.670437
95 2 0.668854 0.67249 0.675506
96 3 0.668142 0.680477 0.680885
97 1 0.676185 0.681553 0.686117
98 1 0.675415 0.689428 0.691653
99 3 0.683417 0.690472 0.696953
100 2 0.682593 0.698324 0.70251
ITEM: TIMESTEP
200
ITEM: NUMBER OF ATOMS
100
ITEM: BOX BOUNDS pp pp pp
0.0000000000000000e+00 1.5850000000000000e+02
0.0000000000000000e+00 1.5850000000000000e+02
0.0000000000000000e+00 1.5850000000000000e+02
ITEM: ATOMS id type xs ys zs
1 2 0.240205 0.25016 0.251448
2 2 0.243831 0.253339 0.259727
3 3 0.251905 0.258336 0.257739
4 2 0.255281 0.261524 0.266302
5 1 0.263123 0.266785 0.26545
6 2 0.266169 0.268458 0.274344
7 3 0.274169 0.274025 0.274923
8 2 0.276244 0.275587 0.28409
9 3 0.284774 0.279658 0.284232
10 2 0.286492 0.283253 0.293141
11 2 0.294459 0.288538 0.293052
12 2 0.294444 0.293906 0.30098
13 1 0.302382 0.299717 0.301473
14 1 0.301692 0.304699 0.30971
15 1 0.310406 0.308575 0.311053
16 1 0.311097 0.3126 0.320105
17 1 0.320044 0.316519 0.320204
18 3 0.319889 0.320899 0.328544
19 2 0.328178 0.326226 0.328981
20 1 0.328896 0.330992 0.337658
21 1 0.337161 0.335937 0.337657
22 1 0.338194 0.339758 0.346318
23 1 0.346983 0.344084 0.347076
24 3 0.347487 0.347863 0.355931
25 3 0.355709 0.352892 0.356364
26 2 0.356634 0.358555 0.364469
27 2 0.365382 0.362311 0.364042
28 2 0.366548 0.36779 0.371713
29 1 0.375225 0.372119 0.372018
30 3 0.375751 0.376927 0.3802
31 1 0.384331 0.380179 0.381739
32 2 0.384442 0.385354 0.390004
33 3 0.39298 0.389684 0.391508
34 2 0.393607 0.393425 0.400238
35 1 0.401508 0.398859 0.401649
36 3 0.401106 0.40406 0.41002
37 3 0.409676 0.408589 0.410565
38 1 0.410306 0.413589 0.418954
39 2 0.418859 0.418063 0.419435
40 1 0.419736 0.4213 0.428425
41 2 0.428814 0.424716 0.429285
42 1 0.429495 0.429686 0.437774
43 3 0.438202 0.433002 0.439255
44 2 0.438215 0.439032 0.446764
45 1 0.447142 0.442761 0.447981
46 2 0.44677 0.448343 0.455641
47 1 0.455267 0.451886 0.457698
48 3 0.455602 0.458077 0.465487
49 3 0.464837 0.460129 0.467493
50 2 0.465594 0.468424 0.471975
51 1 0.474857 0.470121 0.473968
52 1 0.475313 0.477797 0.479556
53 1 0.484075 0.479297 0.482949
54 2 0.483729 0.48762 0.487817
55 2 0.492252 0.488839 0.491832
56 2 0.492703 0.496487 0.497488
57 2 0.501756 0.49817 0.500455
58 2 0.501482 0.505792 0.506198
59 3 0.51065 0.507717 0.508191
60 3 0.511788 0.515623 0.513436
61 3 0.520909 0.51818 0.514174
62 3 0.521376 0.52615 0.519504
63 3 0.530639 0.527439 0.522152
64 1 0.531052 0.53514 0.527866
65 3 0.539205 0.534714 0.532848
66 3 0.539978 0.543363 0.537026
67 1 0.547695 0.543501 0.542824
68 2 0.549374 0.552133 0.546722
69 1 0.557404 0.552746 0.552019
70 1 0.558538 0.56156 0.555668
71 1 0.565584 0.560905 0.562098
72 1 0.567059 0.568858 0.567043
73 3 0.57445 0.567817 0.573017
74 1 0.574415 0.575197 0.579126
75 1 0.583094 0.576632 0.582476
76 3 0.583494 0.583993 0.588794
77 2 0.592204 0.585574 0.592188
78 3 0.592555 0.593676 0.597068
79 2 0.600903 0.593856 0.601775
80 2 0.601314 0.601457 0.607989
81 3 0.609705 0.602782 0.612576
82 1 0.610439 0.611646 0.61681
83 3 0.618954 0.612495 0.621859
84 1 0.620621 0.621728 0.624068
85 1 0.62849 0.622659 0.629765
86 1 0.628162 0.631626 0.633552
87 3 0.636084 0.633789 0.638626
88 2 0.635837 0.642472 0.643129
89 3 0.643456 0.644339 0.648802
90 1 0.643034 0.652418 0.653907
91 1 0.651757 0.6539 0.657445
92 3 0.651374 0.661405 0.663505
93 3 0.660248 0.663235 0.666508
94 1 0.660917 0.67136 0.671527
95 2 0.669896 0.672578 0.675771
96 3 0.670707 0.681239 0.680362
97 1 0.679077 0.683188 0.684544
98 1 0.677409 0.690252 0.690984
99 3 0.684978 0.691149 0.697072
100 2 0.682595 0.697432 0.703859
ITEM: TIMESTEP
300
ITEM: NUMBER OF ATOMS
100
ITEM: BOX BOUNDS pp pp pp
0.0000000000000000e+00 1.5850000000000000e+02
0.0000000000000000e+00 1.5850000000000000e+02
0.0000000000000000e+00 1.5850000000000000e+02
ITEM: ATOMS id type xs ys zs
1 2 0.237563 0.253684 0.254114
2 2 0.243078 0.255266 0.262048
3 3 0.249948 0.261589 0.260277
4 2 0.255428 0.262701 0.268082
5 1 0.2636 0.267912 0.26609
6 2 0.267975 0.269369 0.274504
7 3 0.27685 0.272861 0.272864
8 2 0.280844 0.273862 0.281695
9 3 0.287759 0.280477 0.282144
10 2 0.289183 0.282105 0.291323
11 2 0.295105 0.289834 0.292068
12 2 0.296159 0.29309 0.301337
13 1 0.302093 0.300332 0.301628
14 1 0.303317 0.303404 0.310603
15 1 0.309837 0.310895 0.310478
16 1 0.310532 0.314412 0.319313
17 1 0.317985 0.320175 0.31972
18 3 0.318627 0.323128 0.329153
19 2 0.326836 0.327844 0.330528
20 1 0.326913 0.331718 0.339523
21 1 0.335367 0.335801 0.340166
22 1 0.33718 0.34032 0.348125
23 1 0.345642 0.344693 0.348214
24 3 0.347811 0.349023 0.356993
25 3 0.356808 0.352774 0.356271
26 2 0.35894 0.356096 0.364608
27 2 0.366925 0.361819 0.364479
28 2 0.368522 0.365341 0.373313
29 1 0.376117 0.371159 0.373199
30 3 0.377454 0.373929 0.382006
31 1 0.385045 0.379971 0.382402
32 2 0.387185 0.382284 0.391463
33 3 0.394701 0.388223 0.391774
34 2 0.394478 0.3924 0.400586
35 1 0.401344 0.399058 0.40159
36 3 0.40222 0.402244 0.410645
37 3 0.40899 0.40913 0.410904
38 1 0.410585 0.412302 0.419576
39 2 0.418649 0.417593 0.419392
40 1 0.420002 0.421261 0.428395
41 2 0.428164 0.42667 0.428953
42 1 0.429832 0.428575 0.437918
43 3 0.437641 0.434427 0.438215
44 2 0.438941 0.436822 0.447447
45 1 0.447392 0.441437 0.448773
46 2 0.447758 0.446313 0.457051
47 1 0.456696 0.44966 0.458475
48 3 0.456606 0.456042 0.465247
49 3 0.46538 0.460018 0.466521
50 2 0.465657 0.465544 0.474615
51 1 0.474532 0.469056 0.47521
52 1 0.474131 0.476832 0.480565
53 1 0.483006 0.480279 0.482013
54 2 0.482662 0.486642 0.489319
55 2 0.491718 0.489115 0.491253
56 2 0.49158 0.495519 0.498683
57 2 0.50054 0.497878 0.501648
58 2 0.500924 0.506824 0.505348
59 3 0.510115 0.508811 0.507835
60 3 0.511133 0.518277 0.510059
61 3 0.52006 0.518898 0.513918
62 3 0.521535 0.527937 0.5168
63 3 0.529672 0.528498 0.521815
64 1 0.530366 0.53726 0.525784
65 3 0.539141 0.53739 0.530039
66 3 0.539413 0.544978 0.536067
67 1 0.548101 0.545348 0.540086
68 2 0.548654 0.553119 0.545887
69 1 0.556929 0.55287 0.550753
70 1 0.557377 0.56047 0.55676
71 1 0.565816 0.561217 0.561383
72 1 0.5653 0.568237 0.568334
73 3 0.573722 0.568393 0.573022
74 1 0.574818 0.577035 0.577407
75 1 0.581463 0.576391 0.584661
76 3 0.584093 0.584902 0.587467
77 2 0.591529 0.584474 0.594002
78 3 0.592533 0.592527 0.599088
79 2 0.601607 0.593818 0.602732
80 2 0.60305 0.602357 0.606794
81 3 0.611703 0.602987 0.611083
82 1 0.611649 0.611826 0.615478
83 3 0.620301 0.612684 0.619679
84 1 0.61986 0.620799 0.625564
85 1 0.62864 0.623456 0.628783
86 1 0.627978 0.632159 0.633155
87 3 0.635695 0.634119 0.638916
88 2 0.635167 0.642135 0.64414
89 3 0.642703 0.643236 0.649828
90 1 0.643013 0.651765 0.653751
91 1 0.650421 0.652542 0.660298
92 3 0.651359 0.661537 0.66338
93 3 0.660007 0.662437 0.668293
94 1 0.660248 0.671791 0.671737
95 2 0.669566 0.673545 0.673965
96 3 0.669786 0.681414 0.679734
97 1 0.677969 0.682 0.684985
98 1 0.677789 0.68968 0.690513
99 3 0.685965 0.690074 0.694987
100 2 0.685453 0.696629 0.702412
ITEM: TIMESTEP
400
ITEM: NUMBER OF ATOMS
100
ITEM: BOX BOUNDS pp pp pp
0.0000000000000000e+00 1.5850000000000000e+02
0.0000000000000000e+00 1.5850000000000000e+02
0.0000000000000000e+00 1.5850000000000000e+02
ITEM: ATOMS id type xs ys zs
1 2 0.235011 0.258685 0.257169
2 2 0.241021 0.259543 0.264241
3 3 0.249651 0.263772 0.262167
4 2 0.255959 0.26298 0.269448
5 1 0.263861 0.268037 0.26765
6 2 0.271317 0.266113 0.273961
7 3 0.277434 0.273647 0.27265
8 2 0.283363 0.273549 0.280001
9 3 0.288718 0.281624 0.280415
10 2 0.292757 0.282189 0.289499
11 2 0.297689 0.290604 0.290475
12 2 0.299659 0.292557 0.299536
13 1 0.303637 0.301437 0.300192
14 1 0.304157 0.304035 0.309615
15 1 0.308858 0.311815 0.311496
16 1 0.309205 0.314877 0.320601
17 1 0.314932 0.32242 0.321525
18 3 0.316598 0.324845 0.330601
19 2 0.323981 0.331445 0.331001
20 1 0.32707 0.332714 0.340059
21 1 0.334321 0.338188 0.340614
22 1 0.337552 0.339507 0.349652
23 1 0.34508 0.345947 0.3494
24 3 0.348444 0.348148 0.358238
25 3 0.356458 0.353628 0.357372
26 2 0.36012 0.355411 0.366144
27 2 0.367754 0.360999 0.365391
28 2 0.370677 0.361874 0.374572
29 1 0.378005 0.368542 0.374658
30 3 0.380824 0.370194 0.383891
31 1 0.386117 0.378434 0.383823
32 2 0.388737 0.380255 0.393041
33 3 0.393586 0.388832 0.392711
34 2 0.396411 0.39075 0.401871
35 1 0.402155 0.398669 0.401015
36 3 0.404454 0.401058 0.410043
37 3 0.410217 0.408668 0.410203
38 1 0.411856 0.411 0.419376
39 2 0.418397 0.418194 0.42016
40 1 0.419338 0.420522 0.429494
41 2 0.427004 0.42639 0.42937
42 1 0.428648 0.429878 0.438004
43 3 0.437405 0.433567 0.438433
44 2 0.439022 0.435653 0.44776
45 1 0.447748 0.440612 0.448408
46 2 0.44978 0.442646 0.45782
47 1 0.456636 0.449418 0.457896
48 3 0.459444 0.451446 0.466831
49 3 0.466184 0.458474 0.466553
50 2 0.465343 0.464097 0.474649
51 1 0.473217 0.470032 0.474597
52 1 0.473408 0.47435 0.483438
53 1 0.481717 0.478799 0.484616
54 2 0.480912 0.485763 0.491277
55 2 0.490318 0.488544 0.493521
56 2 0.490677 0.497614 0.496711
57 2 0.499652 0.498906 0.499681
58 2 0.500873 0.507819 0.503879
59 3 0.51004 0.510103 0.50572
60 3 0.510581 0.51849 0.510273
61 3 0.519616 0.520772 0.512563
62 3 0.520298 0.529281 0.517261
63 3 0.529636 0.530979 0.519524
64 1 0.53043 0.53942 0.524346
65 3 0.539152 0.540196 0.528297
66 3 0.539985 0.54804 0.53396
67 1 0.548695 0.548452 0.5384
68 2 0.548381 0.554497 0.546051
69 1 0.556784 0.554312 0.550921
70 1 0.556973 0.561344 0.557909
71 1 0.564754 0.560761 0.563681
72 1 0.565687 0.569598 0.567736
73 3 0.574282 0.56969 0.573044
74 1 0.574234 0.577415 0.578935
75 1 0.582773 0.5771 0.583807
76 3 0.583263 0.584552 0.590159
77 2 0.592206 0.584774 0.594519
78 3 0.594252 0.593704 0.598222
79 2 0.602653 0.593927 0.60346
80 2 0.604097 0.60275 0.606433
81 3 0.612319 0.603244 0.611295
82 1 0.612409 0.612186 0.614637
83 3 0.621034 0.614826 0.617925
84 1 0.619779 0.622637 0.623353
85 1 0.627096 0.623104 0.629464
86 1 0.626812 0.631429 0.634751
87 3 0.634897 0.631992 0.640109
88 2 0.634677 0.640247 0.644779
89 3 0.643239 0.6417 0.649227
90 1 0.642049 0.64974 0.654552
91 1 0.65042 0.651936 0.658684
92 3 0.650683 0.661105 0.661903
93 3 0.659157 0.662586 0.666858
94 1 0.659156 0.67103 0.670847
95 2 0.66684 0.671627 0.676771
96 3 0.667781 0.680867 0.679849
97 1 0.676009 0.680435 0.684037
98 1 0.677598 0.68827 0.689272
99 3 0.686484 0.688159 0.693419
100 2 0.688998 0.695982 0.697917
ITEM: TIMESTEP
500
ITEM: NUMBER OF ATOMS
100
ITEM: BOX BOUNDS pp pp pp
0.0000000000000000e+00 1.5850000000000000e+02
0.0000000000000000e+00 1.5850000000000000e+02
0.0000000000000000e+00 1.5850000000000000e+02
ITEM: ATOMS id type xs ys zs
1 2 0.23405 0.266337 0.262907
2 2 0.242338 0.261908 0.266161
3 3 0.250194 0.266248 0.264259
4 2 0.257303 0.262728 0.269817
5 1 0.265534 0.268215 0.267985
6 2 0.272051 0.267759 0.274991
7 3 0.27878 0.274238 0.273575
8 2 0.284525 0.275182 0.281231
9 3 0.290896 0.282185 0.279688
10 2 0.295621 0.283183 0.288075
11 2 0.298821 0.292323 0.288942
12 2 0.302316 0.293545 0.298125
13 1 0.304775 0.303019 0.299716
14 1 0.306709 0.304317 0.30934
15 1 0.307567 0.31378 0.311721
16 1 0.31041 0.314365 0.320547
17 1 0.31236 0.323767 0.322567
18 3 0.316813 0.324568 0.331781
19 2 0.320215 0.333641 0.332609
20 1 0.32611 0.333067 0.340132
21 1 0.331994 0.341187 0.341041
22 1 0.337875 0.339759 0.348488
23 1 0.344018 0.347428 0.349165
24 3 0.349487 0.345853 0.357301
25 3 0.354933 0.353601 0.359316
26 2 0.360004 0.352303 0.367423
27 2 0.366651 0.358875 0.36822
28 2 0.372479 0.358211 0.376071
29 1 0.378432 0.365773 0.375896
30 3 0.383626 0.367311 0.384303
31 1 0.387421 0.375945 0.384188
32 2 0.390071 0.378357 0.392825
33 3 0.393922 0.387187 0.393305
34 2 0.398224 0.38883 0.401798
35 1 0.402523 0.397393 0.401762
36 3 0.405461 0.399803 0.410645
37 3 0.411193 0.407522 0.410228
38 1 0.412949 0.410588 0.419541
39 2 0.417942 0.418888 0.420219
40 1 0.420401 0.420296 0.429511
41 2 0.426351 0.427674 0.430286
42 1 0.430237 0.42759 0.439102
43 3 0.436023 0.434715 0.440522
44 2 0.439974 0.434525 0.449391
45 1 0.447509 0.440704 0.448648
46 2 0.452032 0.441264 0.457471
47 1 0.459583 0.447202 0.457915
48 3 0.459309 0.451637 0.46634
49 3 0.466818 0.457256 0.468207
50 2 0.465699 0.461732 0.476733
51 1 0.473643 0.467475 0.478248
52 1 0.473106 0.474091 0.485244
53 1 0.481401 0.478808 0.486144
54 2 0.481502 0.485915 0.492569
55 2 0.490005 0.490174 0.492665
56 2 0.491896 0.497193 0.49946
57 2 0.499501 0.503008 0.497142
58 2 0.499985 0.509571 0.503674
59 3 0.50928 0.512736 0.504589
60 3 0.51046 0.520366 0.510622
61 3 0.519889 0.522949 0.511435
62 3 0.520425 0.530755 0.517043
63 3 0.529529 0.533118 0.518416
64 1 0.5302 0.540322 0.524569
65 3 0.539239 0.5422 0.527504
66 3 0.539464 0.549828 0.533467
67 1 0.54752 0.549568 0.538857
68 2 0.548341 0.556565 0.545766
69 1 0.556725 0.556849 0.550886
70 1 0.556422 0.564024 0.556862
71 1 0.564721 0.563661 0.561901
72 1 0.565186 0.56968 0.5691
73 3 0.573132 0.56825 0.574053
74 1 0.574005 0.575541 0.580242
75 1 0.582961 0.577165 0.582537
76 3 0.58465 0.584321 0.588842
77 2 0.593605 0.584844 0.592167
78 3 0.593127 0.592708 0.598205
79 2 0.601942 0.594246 0.601188
80 2 0.602217 0.602755 0.605886
81 3 0.611254 0.604989 0.608376
82 1 0.612259 0.61342 0.612575
83 3 0.618576 0.613513 0.61987
84 1 0.621093 0.622235 0.622085
85 1 0.628026 0.622594 0.628993
86 1 0.62675 0.63025 0.634424
87 3 0.634069 0.630274 0.640646
88 2 0.633195 0.638522 0.646214
89 3 0.641534 0.640075 0.650645
90 1 0.641775 0.649948 0.652305
91 1 0.650457 0.652325 0.656037
92 3 0.649302 0.659422 0.662248
93 3 0.657751 0.661274 0.666096
94 1 0.65729 0.669555 0.671253
95 2 0.66541 0.67049 0.676318
96 3 0.666226 0.678694 0.681216
97 1 0.675365 0.678417 0.685749
98 1 0.679176 0.687201 0.686983
99 3 0.687039 0.68705 0.692117
100 2 0.690969 0.696139 0.692446
ITEM: TIMESTEP
600
ITEM: NUMBER OF ATOMS
100
ITEM: BOX BOUNDS pp pp pp
0.0000000000000000e+00 1.5850000000000000e+02
0.0000000000000000e+00 1.5850000000000000e+02
0.0000000000000000e+00 1.5850000000000000e+02
ITEM: ATOMS id type xs ys zs
1 2 0.236652 0.271354 0.269597
2 2 0.243153 0.264908 0.268614
3 3 0.251615 0.269128 0.26592
4 2 0.259261 0.26555 0.270913
5 1 0.266491 0.271589 0.269121
6 2 0.273699 0.269784 0.275603
7 3 0.280749 0.276093 0.274369
8 2 0.286838 0.275285 0.281322
9 3 0.290809 0.284011 0.281948
10 2 0.297663 0.285052 0.28842
11 2 0.299534 0.294166 0.289125
12 2 0.305056 0.295186 0.29717
13 1 0.303639 0.304526 0.300569
14 1 0.308555 0.305894 0.308525
15 1 0.30712 0.314612 0.311748
16 1 0.31303 0.315365 0.319474
17 1 0.312502 0.324445 0.322964
18 3 0.318384 0.324723 0.330282
19 2 0.319396 0.334032 0.333645
20 1 0.326495 0.333519 0.340024
21 1 0.329307 0.341928 0.343259
22 1 0.337035 0.34011 0.348841
23 1 0.341476 0.34783 0.352826
24 3 0.349131 0.344496 0.35707
25 3 0.354763 0.351685 0.360057
26 2 0.362176 0.349382 0.365606
27 2 0.366315 0.357448 0.368902
28 2 0.372287 0.357121 0.376577
29 1 0.376763 0.365759 0.378104
30 3 0.383356 0.365123 0.385291
31 1 0.387332 0.373753 0.386151
32 2 0.393242 0.375192 0.393455
33 3 0.39758 0.383277 0.392587
34 2 0.399652 0.386674 0.40137
35 1 0.402258 0.396036 0.401539
36 3 0.406626 0.398379 0.409778
37 3 0.40831 0.407761 0.411918
38 1 0.414051 0.407995 0.420017
39 2 0.417711 0.417066 0.42153
40 1 0.422938 0.418454 0.429842
41 2 0.426654 0.427224 0.431198
42 1 0.431209 0.427717 0.439748
43 3 0.437698 0.43498 0.440552
44 2 0.442914 0.434131 0.448838
45 1 0.448742 0.441476 0.450517
46 2 0.45132 0.442391 0.459973
47 1 0.459025 0.448159 0.46083
48 3 0.46007 0.451104 0.470138
49 3 0.467334 0.457224 0.470844
50 2 0.467807 0.462058 0.479285
51 1 0.475917 0.467394 0.478662
52 1 0.476389 0.47281 0.486756
53 1 0.483458 0.47926 0.486337
54 2 0.483413 0.485738 0.493288
55 2 0.489529 0.493115 0.491064
56 2 0.491022 0.498773 0.498921
57 2 0.499671 0.50362 0.498259
58 2 0.500982 0.510453 0.505217
59 3 0.508894 0.515353 0.503707
60 3 0.509518 0.522156 0.510219
61 3 0.518344 0.525778 0.509556
62 3 0.519435 0.532425 0.516562
63 3 0.528879 0.533613 0.518483
64 1 0.52855 0.540391 0.525499
65 3 0.537561 0.54279 0.527889
66 3 0.537665 0.548842 0.535404
67 1 0.547151 0.551803 0.537146
68 2 0.546874 0.558819 0.543618
69 1 0.55565 0.5593 0.547673
70 1 0.55474 0.564209 0.556032
71 1 0.56344 0.56392 0.559987
72 1 0.564427 0.568487 0.568612
73 3 0.573564 0.568599 0.57166
74 1 0.574315 0.575 0.578752
75 1 0.582351 0.575303 0.583777
76 3 0.583111 0.583498 0.588985
77 2 0.592376 0.584938 0.590284
78 3 0.592676 0.593014 0.595476
79 2 0.601824 0.595488 0.598038
80 2 0.601776 0.603851 0.603376
81 3 0.610441 0.604091 0.607594
82 1 0.610732 0.612132 0.613036
83 3 0.619656 0.614415 0.615946
84 1 0.618573 0.619612 0.624293
85 1 0.626669 0.62017 0.629387
86 1 0.626082 0.628606 0.633939
87 3 0.633365 0.629835 0.640134
88 2 0.633702 0.638817 0.643449
89 3 0.641365 0.640926 0.649477
90 1 0.640121 0.649457 0.653565
91 1 0.647553 0.650514 0.659153
92 3 0.649669 0.65988 0.661322
93 3 0.656575 0.659603 0.667412
94 1 0.657741 0.668214 0.671222
95 2 0.665095 0.667618 0.677306
96 3 0.667394 0.67669 0.679951
97 1 0.675304 0.676973 0.685486
98 1 0.67817 0.686445 0.686772
99 3 0.687848 0.686373 0.688668
100 2 0.690559 0.695027 0.687448
ITEM: TIMESTEP
700
ITEM: NUMBER OF ATOMS
100
ITEM: BOX BOUNDS pp pp pp
0.0000000000000000e+00 1.5850000000000000e+02
0.0000000000000000e+00 1.5850000000000000e+02
0.0000000000000000e+00 1.5850000000000000e+02
ITEM: ATOMS id type xs ys zs
1 2 0.236281 0.27403 0.271783
2 2 0.244198 0.268666 0.273977
3 3 0.252008 0.272995 0.270687
4 2 0.260178 0.267855 0.272086
5 1 0.267841 0.273796 0.269457
6 2 0.275736 0.270453 0.273502
7 3 0.281282 0.278229 0.274385
8 2 0.289016 0.276453 0.28048
9 3 0.292566 0.285209 0.28124
10 2 0.298852 0.286086 0.288212
11 2 0.299678 0.295859 0.290698
12 2 0.305684 0.29708 0.298005
13 1 0.305466 0.305988 0.300364
14 1 0.310737 0.307596 0.308289
15 1 0.309165 0.316466 0.311326
16 1 0.313863 0.317814 0.319521
17 1 0.313308 0.326763 0.323262
18 3 0.319887 0.326652 0.330281
19 2 0.321211 0.334476 0.334916
20 1 0.32742 0.332848 0.341815
21 1 0.330083 0.340747 0.34637
22 1 0.337788 0.338605 0.351878
23 1 0.341453 0.347088 0.354105
24 3 0.34924 0.344897 0.359972
25 3 0.35412 0.352919 0.362422
26 2 0.362039 0.350123 0.3676
27 2 0.366275 0.358826 0.36998
28 2 0.373639 0.356441 0.375684
29 1 0.377591 0.365209 0.378939
30 3 0.384661 0.364389 0.385653
31 1 0.386508 0.373919 0.387552
32 2 0.394476 0.374388 0.393237
33 3 0.395732 0.383693 0.396061
34 2 0.403005 0.384683 0.402656
35 1 0.404889 0.39416 0.40369
36 3 0.409791 0.395503 0.412327
37 3 0.411169 0.405288 0.413353
38 1 0.414606 0.407787 0.422078
39 2 0.419251 0.416551 0.422158
40 1 0.423509 0.41701 0.430709
41 2 0.430159 0.424105 0.430814
42 1 0.434222 0.424392 0.439721
43 3 0.439785 0.432432 0.441055
44 2 0.440868 0.434328 0.450633
45 1 0.446611 0.44213 0.452155
46 2 0.450555 0.442581 0.460741
47 1 0.456407 0.450387 0.462008
48 3 0.46037 0.451227 0.471163
49 3 0.466957 0.458314 0.47093
50 2 0.470814 0.45971 0.479756
51 1 0.47616 0.467613 0.47862
52 1 0.478031 0.472153 0.487015
53 1 0.48273 0.480445 0.484866
54 2 0.485024 0.484702 0.493265
55 2 0.492321 0.49112 0.492013
56 2 0.491583 0.498885 0.498033
57 2 0.499279 0.504699 0.496551
58 2 0.49909 0.511856 0.503454
59 3 0.507549 0.51654 0.502599
60 3 0.507808 0.522328 0.510273
61 3 0.516319 0.52688 0.509904
62 3 0.517682 0.532191 0.517723
63 3 0.525971 0.536837 0.517624
64 1 0.527415 0.540719 0.526282
65 3 0.536121 0.54458 0.527329
66 3 0.536672 0.550337 0.53496
67 1 0.545287 0.553862 0.535489
68 2 0.545899 0.557282 0.544689
69 1 0.554764 0.559971 0.546149
70 1 0.55511 0.56449 0.554807
71 1 0.564386 0.56453 0.557909
72 1 0.564208 0.569325 0.566562
73 3 0.572963 0.568738 0.570648
74 1 0.572384 0.574028 0.578862
75 1 0.581769 0.576915 0.580518
76 3 0.581579 0.583442 0.587392
77 2 0.591127 0.584958 0.589209
78 3 0.592575 0.592825 0.594389
79 2 0.601868 0.595625 0.595686
80 2 0.601592 0.603308 0.601582
81 3 0.610454 0.604619 0.60539
82 1 0.609606 0.610678 0.612938