ITEM: TIMESTEP
0
ITEM: NUMBER OF ATOMS
100
ITEM: BOX BOUNDS ff ff ff
0.0000000000000000e+00 1.5850000000000000e+02
0.0000000000000000e+00 1.5850000000000000e+02
0.0000000000000000e+00 1.5850000000000000e+02
ITEM: ATOMS id type xs ys zs
1 2 0.254838 0.279171 0.240043
3 1 0.256555 0.284051 0.254546
2 3 0.251355 0.278389 0.248876
5 2 0.260266 0.285333 0.270326
4 1 0.25387 0.281943 0.263536
6 1 0.255709 0.284341 0.279061
7 1 0.261583 0.283049 0.286723
8 3 0.267683 0.290515 0.287626
9 1 0.272493 0.288855 0.295923
10 2 0.279382 0.295847 0.29735
12 3 0.29026 0.302027 0.307017
11 3 0.286017 0.293916 0.303983
13 2 0.29705 0.299645 0.313163
15 2 0.308317 0.306604 0.322244
14 3 0.302086 0.307917 0.314877
16 3 0.313823 0.314167 0.321985
17 2 0.321183 0.31331 0.328197
18 3 0.325218 0.321933 0.327909
19 2 0.333357 0.321689 0.333238
20 2 0.336307 0.330788 0.333431
21 3 0.343218 0.332275 0.340232
22 3 0.343962 0.34201 0.34128
23 2 0.352184 0.344411 0.346382
24 1 0.350951 0.353567 0.349884
25 1 0.358352 0.355667 0.355344
26 2 0.357018 0.364754 0.358268
27 1 0.365111 0.3662 0.363503
28 3 0.365528 0.374842 0.368002
29 3 0.373199 0.375676 0.374221
30 2 0.37437 0.385194 0.376959
31 3 0.383443 0.38597 0.380505
32 3 0.384689 0.393573 0.385987
33 2 0.393438 0.394484 0.39009
34 2 0.393205 0.402541 0.395053
35 1 0.400821 0.403292 0.400389
36 1 0.400305 0.412164 0.404454
37 1 0.408318 0.414503 0.409483
38 3 0.407588 0.422607 0.415242
40 1 0.414199 0.430135 0.428032
39 3 0.414152 0.422006 0.422508
41 1 0.421167 0.42996 0.434709
42 1 0.420329 0.43732 0.440599
43 2 0.428205 0.43701 0.446303
44 3 0.429149 0.443206 0.45342
45 1 0.437987 0.445089 0.45491
48 1 0.45218 0.448188 0.46849
46 1 0.438784 0.451994 0.461418
47 3 0.447735 0.454881 0.462957
49 3 0.461181 0.451214 0.469335
50 3 0.460881 0.459739 0.473947
51 2 0.470126 0.461807 0.476314
52 3 0.470024 0.469576 0.48185
53 2 0.478786 0.472608 0.485133
54 3 0.478807 0.481814 0.488137
55 2 0.487561 0.483606 0.491863
56 1 0.486727 0.492095 0.495885
57 1 0.49466 0.493785 0.501049
58 2 0.495202 0.50336 0.502557
59 2 0.503749 0.504967 0.506383
60 3 0.50498 0.514021 0.509215
61 3 0.513892 0.514969 0.513031
62 3 0.517037 0.524049 0.514202
63 2 0.523185 0.524126 0.521636
64 3 0.528825 0.532176 0.521457
65 1 0.535118 0.53217 0.528864
66 3 0.538569 0.541264 0.529027
67 1 0.546135 0.543207 0.534958
68 3 0.550086 0.552317 0.53463
69 1 0.556854 0.552565 0.542079
70 2 0.560997 0.560991 0.54304
71 1 0.568444 0.561198 0.549469
72 1 0.571212 0.570292 0.55168
73 2 0.578444 0.569503 0.558291
74 2 0.58138 0.578238 0.561245
75 2 0.586268 0.577783 0.569744
76 3 0.586357 0.587227 0.571909
77 1 0.594435 0.588618 0.576996
78 3 0.592001 0.593804 0.584707
79 1 0.599522 0.594776 0.590179
80 2 0.597588 0.601657 0.596479
81 1 0.604236 0.602623 0.603228
82 1 0.601431 0.610386 0.608072
83 3 0.607826 0.611436 0.615459
84 1 0.605769 0.618724 0.621542
85 3 0.61364 0.620364 0.626513
86 1 0.612345 0.628067 0.632041
88 3 0.619872 0.639443 0.640326
87 1 0.620205 0.630338 0.636497
89 1 0.628238 0.641059 0.644925
90 3 0.627588 0.649838 0.64919
91 1 0.636042 0.651861 0.65313
92 3 0.635269 0.661307 0.655345
93 2 0.643171 0.664238 0.660183
94 2 0.642144 0.673756 0.662101
95 3 0.650968 0.677439 0.664648
96 3 0.64877 0.686263 0.667923
98 1 0.660675 0.685349 0.678884
100 1 0.673226 0.683821 0.687944
99 3 0.668431 0.689971 0.682086
97 2 0.656786 0.690856 0.671631
ITEM: TIMESTEP
100
ITEM: NUMBER OF ATOMS
100
ITEM: BOX BOUNDS ff ff ff
0.0000000000000000e+00 1.5850000000000000e+02
0.0000000000000000e+00 1.5850000000000000e+02
0.0000000000000000e+00 1.5850000000000000e+02
ITEM: ATOMS id type xs ys zs
1 2 0.257425 0.282121 0.240583
3 1 0.258227 0.281796 0.256323
2 3 0.252348 0.282872 0.248754
5 2 0.258978 0.28137 0.272068
4 1 0.25312 0.282509 0.264479
6 1 0.253841 0.281994 0.280227
7 1 0.259703 0.280765 0.287808
8 3 0.266012 0.288065 0.288161
9 1 0.272093 0.286743 0.295544
10 2 0.278283 0.294131 0.29589
12 3 0.290327 0.300578 0.30361
11 3 0.284492 0.292902 0.303176
13 2 0.296638 0.299578 0.31085
15 2 0.308428 0.306921 0.3185
14 3 0.301988 0.307593 0.311347
16 3 0.313231 0.315269 0.319031
17 2 0.319793 0.314972 0.326094
18 3 0.323976 0.323648 0.326695
19 2 0.330648 0.32372 0.333671
20 2 0.334161 0.33268 0.334384
21 3 0.340938 0.333143 0.341237
22 3 0.343659 0.342356 0.342162
23 2 0.350535 0.343224 0.348871
24 1 0.35246 0.352611 0.350038
25 1 0.359456 0.353814 0.356569
26 2 0.360668 0.363264 0.358114
27 1 0.367823 0.364644 0.36444
28 3 0.368476 0.374039 0.366557
29 3 0.375791 0.375393 0.372702
30 2 0.37612 0.384634 0.375473
31 3 0.38362 0.385776 0.381431
32 3 0.383785 0.394747 0.384983
33 2 0.391416 0.395532 0.390831
34 2 0.391446 0.404131 0.395216
35 1 0.399132 0.404544 0.401031
36 1 0.399059 0.412773 0.406063
37 1 0.406852 0.412986 0.411758
38 3 0.406676 0.420898 0.417271
40 1 0.414357 0.428797 0.428542
39 3 0.414595 0.421063 0.422786
41 1 0.422486 0.429164 0.43372
42 1 0.422223 0.436871 0.439511
43 2 0.430628 0.43766 0.444168
44 3 0.430453 0.445511 0.449768
45 1 0.439131 0.446711 0.453804
48 1 0.450308 0.449178 0.468813
46 1 0.439081 0.454729 0.45917
47 3 0.447952 0.456234 0.462653
49 3 0.459301 0.45073 0.471931
50 3 0.459583 0.459309 0.476338
51 2 0.468612 0.461283 0.479076
52 3 0.468809 0.470087 0.483006
53 2 0.477841 0.472263 0.485597
54 3 0.478009 0.481133 0.489389
55 2 0.487051 0.483276 0.491973
56 1 0.487292 0.492084 0.495901
57 1 0.496323 0.493981 0.498695
58 2 0.496724 0.502718 0.502766
59 2 0.505756 0.504285 0.505768
60 3 0.506433 0.513009 0.509821
61 3 0.51552 0.514237 0.512825
62 3 0.516539 0.523006 0.516718
63 2 0.525669 0.523919 0.519699
64 3 0.527113 0.532713 0.523382
65 1 0.536302 0.533351 0.526247
66 3 0.538006 0.542159 0.529779
67 1 0.547187 0.542664 0.532706
68 3 0.548919 0.551473 0.536217
69 1 0.557951 0.551881 0.539593
70 2 0.559461 0.5606 0.543413
71 1 0.568198 0.5609 0.547493
72 1 0.569313 0.569483 0.55174
73 2 0.577613 0.569681 0.556656
74 2 0.578105 0.578044 0.561435
75 2 0.585871 0.57815 0.567156
76 3 0.585601 0.586205 0.57245
77 1 0.59288 0.58631 0.578775
78 3 0.591948 0.594171 0.584284
79 1 0.598938 0.594464 0.59092
80 2 0.597476 0.602168 0.596536
81 1 0.604353 0.60269 0.603276
82 1 0.602658 0.610397 0.608828
83 3 0.609664 0.611309 0.615399
84 1 0.607974 0.61922 0.620667
85 3 0.615301 0.620706 0.626761
86 1 0.613773 0.628943 0.63155
88 3 0.620146 0.639539 0.641259
87 1 0.621439 0.630958 0.637043
89 1 0.628146 0.641975 0.646061
90 3 0.627104 0.650859 0.64969
91 1 0.635408 0.653643 0.653734
92 3 0.634531 0.662727 0.656855
93 2 0.64302 0.665777 0.660279
94 2 0.642194 0.674975 0.663062
95 3 0.650772 0.678199 0.666065
96 3 0.649939 0.687428 0.668758
98 1 0.661464 0.685809 0.679351
100 1 0.672905 0.684284 0.690062
99 3 0.670062 0.68912 0.682212
97 2 0.658566 0.690719 0.671564
ITEM: TIMESTEP
200
ITEM: NUMBER OF ATOMS
100
ITEM: BOX BOUNDS ff ff ff
0.0000000000000000e+00 1.5850000000000000e+02
0.0000000000000000e+00 1.5850000000000000e+02
0.0000000000000000e+00 1.5850000000000000e+02
ITEM: ATOMS id type xs ys zs
1 2 0.255939 0.284428 0.240646
3 1 0.257467 0.28198 0.256139
2 3 0.251156 0.283217 0.248943
5 2 0.259077 0.279502 0.271605
4 1 0.252715 0.280699 0.264445
6 1 0.254403 0.278178 0.279948
7 1 0.260852 0.277144 0.287057
8 3 0.265836 0.285354 0.288014
9 1 0.272497 0.284398 0.294935
10 2 0.27738 0.292686 0.295725
12 3 0.288929 0.300292 0.303152
11 3 0.284222 0.291891 0.302489
13 2 0.295905 0.299705 0.309798
15 2 0.307381 0.307882 0.317009
14 3 0.300351 0.308256 0.310405
16 3 0.311488 0.316588 0.317708
17 2 0.318509 0.316405 0.324326
18 3 0.322239 0.325263 0.325221
19 2 0.329217 0.325228 0.33189
20 2 0.332549 0.334218 0.333008
21 3 0.339492 0.334342 0.339714
22 3 0.342433 0.343441 0.341032
23 2 0.349366 0.343734 0.347744
24 1 0.351888 0.352931 0.349248
25 1 0.358788 0.353402 0.355982
26 2 0.36085 0.36267 0.357717
27 1 0.367714 0.363305 0.364474
28 3 0.369298 0.372609 0.366518
29 3 0.376113 0.373333 0.373315
30 2 0.377263 0.382609 0.375735
31 3 0.384061 0.383318 0.382549
32 3 0.384881 0.392502 0.385405
33 2 0.39167 0.39309 0.392243
34 2 0.392234 0.402133 0.395569
35 1 0.399011 0.402527 0.40243
36 1 0.399428 0.411419 0.406158
37 1 0.406312 0.411665 0.412922
38 3 0.406745 0.420461 0.416874
40 1 0.414426 0.42942 0.427372
39 3 0.413874 0.420652 0.423378
41 1 0.421858 0.429648 0.433525
42 1 0.422534 0.438431 0.437471
43 2 0.430276 0.438756 0.443228
44 3 0.431071 0.447565 0.447088
45 1 0.439106 0.44801 0.452412
48 1 0.448022 0.451428 0.468675
46 1 0.439994 0.456846 0.456191
47 3 0.448291 0.457399 0.461093
49 3 0.456474 0.451882 0.473312
50 3 0.457753 0.460819 0.476717
51 2 0.466419 0.461478 0.480914
52 3 0.467722 0.470496 0.484086
53 2 0.476521 0.471357 0.487952
54 3 0.477802 0.480465 0.490874
55 2 0.486718 0.481538 0.494408
56 1 0.487962 0.490724 0.497096
57 1 0.496947 0.49196 0.500392
58 2 0.498152 0.501169 0.503016
59 2 0.507176 0.502448 0.506186
60 3 0.508392 0.51164 0.50886
61 3 0.517461 0.512872 0.511954
62 3 0.518692 0.522023 0.514791
63 2 0.527735 0.523163 0.51796
64 3 0.528972 0.532218 0.521059
65 1 0.53797 0.533227 0.524397
66 3 0.539147 0.54215 0.527879
67 1 0.548036 0.542988 0.531542
68 3 0.54907 0.55172 0.535518
69 1 0.557806 0.552383 0.539565
70 2 0.558616 0.5609 0.544027
71 1 0.567171 0.561425 0.548462
72 1 0.567686 0.569727 0.553349
73 2 0.57601 0.570152 0.558218
74 2 0.576155 0.578256 0.563455
75 2 0.584223 0.578633 0.568739
76 3 0.583935 0.586543 0.574259
77 1 0.591744 0.586948 0.579917
78 3 0.590985 0.59467 0.585655
79 1 0.59861 0.59523 0.591544
80 2 0.597435 0.602815 0.597394
81 1 0.604989 0.60366 0.60334
82 1 0.603522 0.611238 0.609133
83 3 0.611114 0.612513 0.614955
84 1 0.609521 0.620271 0.620477
85 3 0.617234 0.622049 0.625998
86 1 0.615642 0.630073 0.631119
88 3 0.622039 0.640656 0.640842
87 1 0.62353 0.632323 0.636202
89 1 0.630138 0.643358 0.645351
90 3 0.628747 0.651952 0.649522
91 1 0.637005 0.655006 0.653465
92 3 0.635688 0.66376 0.657307
93 2 0.644067 0.667031 0.660807
94 2 0.642806 0.675878 0.66446
95 3 0.651272 0.679266 0.66763
96 3 0.650062 0.688137 0.671234
98 1 0.661884 0.686166 0.681478
100 1 0.673745 0.684172 0.691675
99 3 0.670411 0.689601 0.684421
97 2 0.658574 0.69158 0.674206
ITEM: TIMESTEP
300
ITEM: NUMBER OF ATOMS
100
ITEM: BOX BOUNDS ff ff ff
0.0000000000000000e+00 1.5850000000000000e+02
0.0000000000000000e+00 1.5850000000000000e+02
0.0000000000000000e+00 1.5850000000000000e+02
ITEM: ATOMS id type xs ys zs
1 2 0.252746 0.284986 0.240616
3 1 0.256138 0.281768 0.255674
2 3 0.249095 0.282121 0.249081
5 2 0.259543 0.278513 0.270724
4 1 0.252492 0.2789 0.264141
6 1 0.255909 0.275619 0.279187
7 1 0.262984 0.27514 0.285738
8 3 0.266498 0.283986 0.287349
9 1 0.273655 0.28349 0.293808
10 2 0.277196 0.292332 0.29537
12 3 0.288078 0.300671 0.303124
11 3 0.284494 0.291828 0.301668
13 2 0.295535 0.300191 0.309235
15 2 0.30667 0.308637 0.316591
14 3 0.299118 0.309051 0.310592
16 3 0.310166 0.317538 0.317898
17 2 0.317745 0.317242 0.323868
18 3 0.321075 0.326205 0.325192
19 2 0.32863 0.326043 0.331197
20 2 0.331697 0.335079 0.332655
21 3 0.339132 0.335063 0.338809
22 3 0.341844 0.344169 0.340511
23 2 0.3491 0.34428 0.346874
24 1 0.351436 0.353434 0.348853
25 1 0.358506 0.353647 0.35542
26 2 0.360463 0.362822 0.35769
27 1 0.367351 0.363094 0.364445
28 3 0.368929 0.372264 0.367013
29 3 0.375669 0.372585 0.373915
30 2 0.376918 0.381729 0.376742
31 3 0.383601 0.382078 0.383696
32 3 0.384653 0.391199 0.38667
33 2 0.391374 0.391567 0.393585
34 2 0.392324 0.400664 0.396663
35 1 0.399139 0.401052 0.403485
36 1 0.40002 0.410135 0.406624
37 1 0.40693 0.410553 0.413347
38 3 0.407747 0.41962 0.416546
40 1 0.41556 0.429121 0.4264
39 3 0.414758 0.420064 0.423164
41 1 0.42271 0.429586 0.432864
42 1 0.423534 0.43863 0.436129
43 2 0.430874 0.439085 0.442378
44 3 0.4318 0.448115 0.445653
45 1 0.439387 0.448563 0.451602
48 1 0.446936 0.452708 0.468398
46 1 0.440441 0.457588 0.454855
47 3 0.448277 0.458048 0.460469
49 3 0.454992 0.452906 0.473709
50 3 0.456708 0.46196 0.476579
51 2 0.465072 0.462293 0.481382
52 3 0.466908 0.471415 0.483943
53 2 0.475517 0.471896 0.488281
54 3 0.477396 0.481071 0.490614
55 2 0.486174 0.48169 0.494579
56 1 0.488035 0.490908 0.496754
57 1 0.496915 0.49164 0.500466
58 2 0.498719 0.500876 0.502615
59 2 0.507658 0.501707 0.50616
60 3 0.509374 0.510943 0.508377
61 3 0.518332 0.511828 0.511864
62 3 0.519913 0.521035 0.514298
63 2 0.528839 0.521965 0.517845
64 3 0.530218 0.5311 0.520637
65 1 0.539045 0.532054 0.524424
66 3 0.540135 0.541069 0.527694
67 1 0.548812 0.542007 0.531813
68 3 0.549572 0.550842 0.535623
69 1 0.55807 0.551735 0.540112
70 2 0.558461 0.56033 0.544488
71 1 0.566773 0.561145 0.549328
72 1 0.566789 0.569451 0.554246
73 2 0.57494 0.570179 0.559366
74 2 0.574632 0.578202 0.564724
75 2 0.582665 0.578875 0.570033
76 3 0.58211 0.586684 0.57568
77 1 0.590105 0.587401 0.581041
78 3 0.589354 0.595076 0.586845
79 1 0.597359 0.595954 0.592167
80 2 0.596429 0.603572 0.598021
81 1 0.604483 0.604743 0.603212
82 1 0.603393 0.61238 0.609013
83 3 0.611504 0.613928 0.614013
84 1 0.610259 0.621638 0.619686
85 3 0.618419 0.623603 0.624453
86 1 0.617045 0.631456 0.629895
88 3 0.623755 0.641844 0.63959
87 1 0.625244 0.633846 0.634393
89 1 0.631978 0.644608 0.643822
90 3 0.630395 0.652741 0.648775
91 1 0.638648 0.655848 0.652702
92 3 0.636991 0.664102 0.657426
93 2 0.645258 0.667521 0.661051
94 2 0.643524 0.675869 0.665578
95 3 0.651798 0.679525 0.668946
96 3 0.65002 0.687925 0.673358
98 1 0.662088 0.685986 0.683315
100 1 0.674194 0.684014 0.693212
99 3 0.670401 0.68976 0.686448
97 2 0.658308 0.691719 0.676533
ITEM: TIMESTEP
400
ITEM: NUMBER OF ATOMS
100
ITEM: BOX BOUNDS ff ff ff
0.0000000000000000e+00 1.5850000000000000e+02
0.0000000000000000e+00 1.5850000000000000e+02
0.0000000000000000e+00 1.5850000000000000e+02
ITEM: ATOMS id type xs ys zs
1 2 0.251717 0.285068 0.240845
3 1 0.255497 0.281451 0.25572
2 3 0.248272 0.282063 0.249347
5 2 0.259299 0.27785 0.27058
4 1 0.252062 0.278426 0.26422
6 1 0.255909 0.27482 0.279095
7 1 0.263169 0.274363 0.285439
8 3 0.266638 0.28324 0.286963
9 1 0.274048 0.282816 0.293134
10 2 0.27751 0.291711 0.294573
12 3 0.288469 0.300245 0.301985
11 3 0.285044 0.291328 0.300594
13 2 0.296053 0.29991 0.307945
15 2 0.30692 0.30858 0.315404
14 3 0.299365 0.308858 0.309404
16 3 0.310056 0.317567 0.317005
17 2 0.317537 0.317359 0.323102
18 3 0.320459 0.326385 0.324877
19 2 0.327852 0.326252 0.331083
20 2 0.330564 0.335316 0.332997
21 3 0.337916 0.335267 0.339251
22 3 0.340431 0.344364 0.341273
23 2 0.347772 0.344402 0.34754
24 1 0.350084 0.353527 0.34967
25 1 0.357385 0.353639 0.355981
26 2 0.35944 0.36278 0.3583
27 1 0.36662 0.362974 0.364747
28 3 0.368358 0.372121 0.367286
29 3 0.375395 0.37238 0.373888
30 2 0.376833 0.38152 0.376631
31 3 0.383738 0.381843 0.383366
32 3 0.384886 0.390964 0.38631
33 2 0.391691 0.39132 0.393143
34 2 0.39261 0.400404 0.396273
35 1 0.399381 0.400784 0.40314
36 1 0.40015 0.409839 0.406387
37 1 0.406972 0.410231 0.4132
38 3 0.407681 0.419268 0.416513
40 1 0.415389 0.428717 0.426505
39 3 0.414648 0.419689 0.42318
41 1 0.422588 0.429167 0.432916
42 1 0.423433 0.438201 0.436205
43 2 0.430901 0.438686 0.4423
44 3 0.431872 0.447729 0.44553
45 1 0.439581 0.448234 0.451314
48 1 0.447477 0.452507 0.467916
46 1 0.440659 0.45728 0.454495
47 3 0.44861 0.45782 0.459937
49 3 0.455608 0.452836 0.473103
50 3 0.457254 0.461934 0.475879
51 2 0.465617 0.462395 0.480674
52 3 0.467339 0.471551 0.483189
53 2 0.475902 0.472153 0.487596
54 3 0.477634 0.481362 0.489909
55 2 0.48635 0.482085 0.493988
56 1 0.488104 0.491315 0.496201
57 1 0.496926 0.492092 0.500038
58 2 0.498671 0.501325 0.502235
59 2 0.507546 0.502106 0.505945
60 3 0.50924 0.511315 0.508281
61 3 0.518113 0.512096 0.512013
62 3 0.519735 0.521255 0.514606
63 2 0.528561 0.52199 0.518438
64 3 0.529999 0.531066 0.52138
65 1 0.538724 0.531791 0.525439
66 3 0.539933 0.540753 0.528804
67 1 0.548523 0.54146 0.53315
68 3 0.549456 0.550294 0.536927
69 1 0.557879 0.550971 0.541593
70 2 0.558493 0.559651 0.545768
71 1 0.566757 0.560329 0.55071
72 1 0.567029 0.56884 0.555254
73 2 0.575151 0.569543 0.560423
74 2 0.575085 0.577872 0.565301
75 2 0.583098 0.578615 0.570634
76 3 0.582713 0.586765 0.575794
77 1 0.59063 0.587584 0.581258
78 3 0.589962 0.595589 0.586611
79 1 0.597818 0.596524 0.592144
80 2 0.596909 0.604445 0.597588
81 1 0.604763 0.605607 0.603081
82 1 0.603681 0.613542 0.608471
83 3 0.611571 0.615008 0.613838
84 1 0.610341 0.622999 0.619114
85 3 0.618295 0.62481 0.624275
86 1 0.616981 0.632915 0.629351
88 3 0.623643 0.64332 0.639088
87 1 0.625021 0.635091 0.634229
89 1 0.631764 0.645806 0.643677
90 3 0.630367 0.654132 0.648359
91 1 0.638584 0.656873 0.652619
92 3 0.637216 0.665294 0.657135
93 2 0.645521 0.668208 0.6611
94 2 0.644184 0.676669 0.665551
95 3 0.652541 0.679669 0.669341
96 3 0.651222 0.688145 0.673768
98 1 0.662588 0.685084 0.684262
100 1 0.673988 0.681997 0.694708
99 3 0.671008 0.688125 0.687872
97 2 0.659619 0.691207 0.677415
ITEM: TIMESTEP
500
ITEM: NUMBER OF ATOMS
100
ITEM: BOX BOUNDS ff ff ff
0.0000000000000000e+00 1.5850000000000000e+02
0.0000000000000000e+00 1.5850000000000000e+02
0.0000000000000000e+00 1.5850000000000000e+02
ITEM: ATOMS id type xs ys zs
1 2 0.247895 0.284553 0.240731
3 1 0.25347 0.280755 0.254981
2 3 0.24565 0.280771 0.249323
5 2 0.259066 0.276892 0.269208
4 1 0.251234 0.27694 0.26356
6 1 0.256846 0.272992 0.277756
7 1 0.264694 0.272862 0.283386
8 3 0.267381 0.281909 0.285424
9 1 0.275225 0.281731 0.291051
10 2 0.277876 0.290757 0.293207
12 3 0.28832 0.299574 0.301075
11 3 0.285725 0.290553 0.298824
13 2 0.29616 0.299381 0.306708
15 2 0.306519 0.308258 0.314651
14 3 0.298678 0.30841 0.309021
16 3 0.308946 0.317303 0.316992
17 2 0.316805 0.317227 0.322598
18 3 0.319127 0.326292 0.324973
19 2 0.326982 0.326278 0.330584
20 2 0.329164 0.335356 0.333043
21 3 0.336954 0.335404 0.338744
22 3 0.338951 0.344483 0.341349
23 2 0.346631 0.344581 0.347199
24 1 0.34841 0.353653 0.349981
25 1 0.355975 0.353799 0.355977
26 2 0.357548 0.362858 0.358918
27 1 0.365029 0.363045 0.365014
28 3 0.366415 0.372088 0.368095
29 3 0.373838 0.372309 0.374262
30 2 0.375066 0.381325 0.377484
31 3 0.382462 0.381563 0.383681
32 3 0.383566 0.390554 0.387014
33 2 0.390964 0.390823 0.393208
34 2 0.391948 0.399795 0.396638
35 1 0.399334 0.400099 0.402842
36 1 0.400154 0.409039 0.406394
37 1 0.407532 0.409407 0.412607
38 3 0.408207 0.418331 0.416224
40 1 0.416194 0.427721 0.426009
39 3 0.415609 0.418788 0.422403
41 1 0.423655 0.428289 0.432104
42 1 0.424225 0.437261 0.435616
43 2 0.431812 0.437953 0.441542
44 3 0.432446 0.446991 0.444874
45 1 0.440236 0.447814 0.450511
48 1 0.448238 0.452672 0.466988
46 1 0.441032 0.456925 0.453598
47 3 0.449063 0.457827 0.458871
49 3 0.456479 0.453294 0.471972
50 3 0.458021 0.46247 0.474531
51 2 0.466442 0.463116 0.479203
52 3 0.468109 0.472314 0.481607
53 2 0.476643 0.472951 0.486074
54 3 0.478393 0.482147 0.488419
55 2 0.486984 0.48276 0.492776
56 1 0.488772 0.491949 0.495134
57 1 0.497386 0.49253 0.499449
58 2 0.499183 0.501702 0.501863
59 2 0.507795 0.502258 0.506189
60 3 0.509557 0.511402 0.508729
61 3 0.518124 0.51192 0.513146
62 3 0.519803 0.52103 0.515853
63 2 0.528315 0.521527 0.52038
64 3 0.529903 0.530603 0.523251
65 1 0.538335 0.53108 0.527923
66 3 0.539774 0.540111 0.531013
67 1 0.548086 0.540572 0.535898
68 3 0.549334 0.549546 0.539224
69 1 0.55751 0.550018 0.544334
70 2 0.558494 0.558925 0.547915
71 1 0.566507 0.559444 0.553269
72 1 0.56717 0.568289 0.557077
73 2 0.575016 0.568902 0.562663
74 2 0.575329 0.577685 0.566654
75 2 0.583016 0.578419 0.57244
76 3 0.582987 0.587137 0.576584
77 1 0.590565 0.588011 0.582494
78 3 0.590255 0.596679 0.586733
79 1 0.597779 0.597703 0.592688
80 2 0.597233 0.606327 0.596991
81 1 0.604747 0.607514 0.602928
82 1 0.604039 0.616116 0.607252
83 3 0.611601 0.617456 0.613096
84 1 0.610804 0.626052 0.61742
85 3 0.618427 0.627515 0.623154
86 1 0.617582 0.636103 0.627481
88 3 0.624461 0.646274 0.637372
87 1 0.625294 0.637674 0.633068
89 1 0.632287 0.647935 0.642771
90 3 0.631492 0.656556 0.647043
91 1 0.639431 0.658305 0.652248
92 3 0.63869 0.666953 0.656472
93 2 0.646739 0.668773 0.661478
94 2 0.646058 0.677442 0.665671
95 3 0.654209 0.679327 0.670487
96 3 0.65355 0.687999 0.674673
98 1 0.663018 0.683683 0.686532
100 1 0.672548 0.67936 0.698331
99 3 0.671282 0.685651 0.691121
97 2 0.661781 0.689971 0.679315
ITEM: TIMESTEP
600
ITEM: NUMBER OF ATOMS
100
ITEM: BOX BOUNDS ff ff ff
0.0000000000000000e+00 1.5850000000000000e+02
0.0000000000000000e+00 1.5850000000000000e+02
0.0000000000000000e+00 1.5850000000000000e+02
ITEM: ATOMS id type xs ys zs
1 2 0.247325 0.285136 0.241199
3 1 0.253299 0.280888 0.255157
2 3 0.245367 0.280915 0.249657
5 2 0.259283 0.276596 0.269096
4 1 0.251345 0.276643 0.263604
6 1 0.257347 0.272309 0.277525
7 1 0.265288 0.27227 0.283011
8 3 0.26771 0.281345 0.285237
9 1 0.275683 0.281306 0.290676
10 2 0.278073 0.290377 0.292948
12 3 0.288355 0.299409 0.300764
11 3 0.28604 0.290343 0.298396
13 2 0.296296 0.299372 0.306249
15 2 0.306479 0.30839 0.314218
14 3 0.298549 0.308428 0.308715
16 3 0.308678 0.317444 0.316735
17 2 0.31659 0.31743 0.322263
18 3 0.318713 0.326483 0.324852
19 2 0.326591 0.326487 0.330429
20 2 0.328609 0.335534 0.333121
21 3 0.336439 0.33556 0.338766
22 3 0.338328 0.344596 0.341584
23 2 0.346075 0.344637 0.347342
24 1 0.347826 0.35366 0.35029
25 1 0.355485 0.353728 0.356165
26 2 0.35707 0.362745 0.359223
27 1 0.36465 0.362881 0.365199
28 3 0.366063 0.371898 0.36834
29 3 0.373565 0.372095 0.374412
30 2 0.374811 0.381106 0.377642
31 3 0.382217 0.381349 0.383827
32 3 0.383314 0.390349 0.38714
33 2 0.390649 0.390629 0.393409
34 2 0.391612 0.399613 0.396806
35 1 0.398912 0.399939 0.403115
36 1 0.399767 0.408919 0.406553
37 1 0.407077 0.409306 0.412846
38 3 0.407891 0.418298 0.416263
40 1 0.416112 0.427768 0.425806
39 3 0.415274 0.41875 0.422465
41 1 0.42362 0.428299 0.431851
42 1 0.424491 0.437352 0.435088
43 2 0.432138 0.437985 0.440944
44 3 0.433062 0.447086 0.444028
45 1 0.440874 0.447823 0.44965
48 1 0.448839 0.45276 0.466096
46 1 0.441893 0.456972 0.452557
47 3 0.449884 0.457771 0.457913
49 3 0.456984 0.45334 0.471245
50 3 0.458554 0.462517 0.473792
51 2 0.466824 0.463101 0.478737
52 3 0.46852 0.472291 0.481155
53 2 0.476895 0.472856 0.48592
54 3 0.478675 0.482051 0.488252
55 2 0.487133 0.482599 0.492873
56 1 0.488984 0.491788 0.495177
57 1 0.497498 0.492312 0.499697
58 2 0.499356 0.501492 0.502027
59 2 0.507876 0.501997 0.506535
60 3 0.509689 0.511156 0.508979
61 3 0.518175 0.511638 0.513556
62 3 0.519917 0.520766 0.51616
63 2 0.528334 0.521227 0.520861
64 3 0.529934 0.530326 0.523651
65 1 0.538245 0.5308 0.528535
66 3 0.539655 0.53986 0.531544
67 1 0.547841 0.540355 0.536633
68 3 0.549015 0.54937 0.539872
69 1 0.557079 0.54992 0.545148
70 2 0.557995 0.55889 0.548591
71 1 0.565935 0.559509 0.554043
72 1 0.566568 0.568425 0.557684
73 2 0.574389 0.56913 0.563296
74 2 0.574734 0.577986 0.567117
75 2 0.582442 0.578783 0.572871
76 3 0.582521 0.587583 0.576834
77 1 0.59015 0.588482 0.582677
78 3 0.59 0.597236 0.586743
79 1 0.59756 0.598229 0.592661
80 2 0.597199 0.606935 0.596815
81 1 0.604724 0.608033 0.602757
82 1 0.604225 0.616717 0.60694
83 3 0.611767 0.617925 0.612841
84 1 0.611183 0.626602 0.617028
85 3 0.618769 0.627913 0.622851
86 1 0.618144 0.636598 0.627016
88 3 0.625167 0.646708 0.636847
87 1 0.625807 0.638011 0.632711
89 1 0.632905 0.648206 0.642417
90 3 0.632261 0.656911 0.646536
91 1 0.640074 0.658478 0.65198
92 3 0.639447 0.667194 0.656079
93 2 0.647346 0.668823 0.661381
94 2 0.646747 0.677552 0.665458
95 3 0.65471 0.679238 0.670646
96 3 0.654105 0.687961 0.674733
98 1 0.662716 0.683376 0.687118
100 1 0.671387 0.67875 0.699447
99 3 0.670763 0.685065 0.692174
97 2 0.662118 0.68968 0.679832
ITEM: TIMESTEP
700
ITEM: NUMBER OF ATOMS
100
ITEM: BOX BOUNDS ff ff ff
0.0000000000000000e+00 1.5850000000000000e+02
0.0000000000000000e+00 1.5850000000000000e+02
0.0000000000000000e+00 1.5850000000000000e+02
ITEM: ATOMS id type xs ys zs
1 2 0.247043 0.285676 0.241388
3 1 0.253242 0.281134 0.255153
2 3 0.245252 0.281173 0.249737
5 2 0.259473 0.276563 0.268891
4 1 0.251472 0.276599 0.263492
6 1 0.257727 0.271999 0.277221
7 1 0.265736 0.271974 0.282611
8 3 0.267982 0.281037 0.28508
9 1 0.276013 0.281022 0.290436
10 2 0.278236 0.290079 0.292934
12 3 0.28845 0.299125 0.300823
11 3 0.286263 0.290069 0.298296
13 2 0.296452 0.299144 0.306223
15 2 0.306536 0.308263 0.314223
14 3 0.298552 0.308207 0.308799
16 3 0.308586 0.317332 0.316816
17 2 0.316568 0.317414 0.322244
18 3 0.318577 0.32648 0.324882
19 2 0.326518 0.32654 0.330372
20 2 0.328475 0.335582 0.333127
21 3 0.336328 0.33561 0.338742
22 3 0.338147 0.344628 0.341662
23 2 0.345871 0.344675 0.347453
24 1 0.347516 0.353686 0.350496
25 1 0.355137 0.353785 0.356419
26 2 0.356628 0.362802 0.359526
27 1 0.364159 0.362965 0.365561
28 3 0.365503 0.371981 0.368737
29 3 0.372953 0.372183 0.374871
30 2 0.374161 0.381181 0.378142
31 3 0.381564 0.381416 0.384334
32 3 0.382656 0.390411 0.387661
33 2 0.39006 0.390701 0.393846
34 2 0.391075 0.399695 0.397194
35 1 0.398493 0.400041 0.403359
36 1 0.399454 0.40905 0.406685
37 1 0.4069 0.40947 0.412813
38 3 0.407842 0.418505 0.416079
40 1 0.416328 0.428049 0.425296
39 3 0.415359 0.418988 0.422115
41 1 0.423923 0.428593 0.431228
42 1 0.424932 0.437678 0.434329
43 2 0.432611 0.438249 0.440148
44 3 0.433726 0.44736 0.443132
45 1 0.441523 0.447947 0.448789
48 1 0.44938 0.452705 0.465291
46 1 0.442752 0.457081 0.451656
47 3 0.450678 0.457689 0.45713
49 3 0.457434 0.453125 0.470592
50 3 0.459132 0.462272 0.473169
51 2 0.46732 0.462704 0.478258
52 3 0.469102 0.471869 0.480711
53 2 0.477385 0.472325 0.485645
54 3 0.479221 0.481498 0.488018
55 2 0.48758 0.481987 0.492822
56 1 0.489404 0.491176 0.49515
57 1 0.497801 0.491712 0.499883
58 2 0.499597 0.500911 0.502204
59 2 0.508 0.501476 0.506924
60 3 0.509725 0.510665 0.509322
61 3 0.518082 0.511247 0.514122
62 3 0.519709 0.520422 0.516638
63 2 0.528017 0.521013 0.521514
64 3 0.529532 0.53017 0.524158
65 1 0.53775 0.530768 0.529187
66 3 0.539094 0.539893 0.532027
67 1 0.547184 0.540506 0.537258
68 3 0.548339 0.549595 0.540296
69 1 0.556311 0.550211 0.545703
70 2 0.557286 0.559256 0.54892
71 1 0.565139 0.559898 0.554496
72 1 0.565895 0.568895 0.557901
73 2 0.573608 0.569552 0.563667
74 2 0.574131 0.578496 0.567255
75 2 0.581722 0.579189 0.573177
76 3 0.582045 0.588091 0.576894
77 1 0.589552 0.588824 0.58292
78 3 0.589697 0.597684 0.586741
79 1 0.597158 0.59849 0.592812
80 2 0.597154 0.607328 0.596686
81 1 0.604614 0.608228 0.602745
82 1 0.604476 0.617048 0.606659
83 3 0.611948 0.618045 0.612688
84 1 0.611697 0.626855 0.616614
85 3 0.6192 0.627971 0.62258
86 1 0.618849 0.636788 0.626486
88 3 0.625962 0.646838 0.636283
87 1 0.626384 0.63802 0.632387
89 1 0.633522 0.648147 0.642139
90 3 0.633063 0.656967 0.646031
91 1 0.640676 0.658336 0.651804
92 3 0.640233 0.66718 0.655642
93 2 0.647907 0.668627 0.661313
94 2 0.647455 0.677484 0.665119
95 3 0.655163 0.678974 0.670734
96 3 0.654698 0.687836 0.67453
98 1 0.66233 0.683346 0.687577
100 1 0.669956 0.67889 0.700641
99 3 0.670088 0.684918 0.693102
97 2 0.662458 0.689391 0.680054
ITEM: TIMESTEP
800
ITEM: NUMBER OF ATOMS
100
ITEM: BOX BOUNDS ff ff ff
0.0000000000000000e+00 1.5850000000000000e+02
0.0000000000000000e+00 1.5850000000000000e+02
0.0000000000000000e+00 1.5850000000000000e+02
ITEM: ATOMS id type xs ys zs
1 2 0.246415 0.28639 0.241699
3 1 0.25309 0.281398 0.255081
2 3 0.244964 0.281459 0.24987
5 2 0.259777 0.276412 0.268457
4 1 0.251653 0.276448 0.263242
6 1 0.258357 0.271446 0.276611
7 1 0.266471 0.271456 0.281844
8 3 0.268492 0.280479 0.284614
9 1 0.276593 0.280515 0.289864
10 2 0.278573 0.289552 0.292619
12 3 0.288617 0.298696 0.300595
11 3 0.28667 0.289642 0.297872
13 2 0.296722 0.298819 0.305837
15 2 0.306714 0.307991 0.313871
14 3 0.298644 0.307874 0.308577
16 3 0.308578 0.317031 0.316695
17 2 0.316578 0.317137 0.322097
18 3 0.31835 0.326159 0.325033
19 2 0.326265 0.326266 0.330558
20 2 0.32791 0.335277 0.333601
21 3 0.335737 0.335422 0.339246
22 3 0.337243 0.344431 0.342369
23 2 0.344996 0.344626 0.348117
24 1 0.346398 0.353637 0.351282
25 1 0.354092 0.353873 0.357105
26 2 0.355397 0.362885 0.360311
27 1 0.363046 0.363154 0.366192
28 3 0.364263 0.372157 0.369454
29 3 0.371868 0.372446 0.375391
30 2 0.373006 0.381443 0.378701
31 3 0.380577 0.381757 0.384679
32 3 0.381662 0.390754 0.388005
33 2 0.389225 0.391095 0.393992
34 2 0.390288 0.400093 0.397321
35 1 0.397866 0.400452 0.403289
36 1 0.398945 0.409461 0.406579
37 1 0.406577 0.409843 0.412479
38 3 0.407721 0.418873 0.415689
40 1 0.416657 0.428324 0.424602
39 3 0.415432 0.419272 0.42148
41 1 0.42445 0.42874 0.430283
42 1 0.425731 0.437806 0.433339
43 2 0.433588 0.438238 0.438929
44 3 0.434909 0.447316 0.441932
45 1 0.442829 0.447764 0.447429
48 1 0.450922 0.452187 0.463863
46 1 0.444187 0.456852 0.450383
47 3 0.452173 0.457317 0.455783
49 3 0.458968 0.452587 0.469179
50 3 0.460523 0.461696 0.471969
51 2 0.468645 0.462145 0.477165
52 3 0.470235 0.471282 0.47984
53 2 0.478409 0.471783 0.484951
54 3 0.480013 0.480944 0.487532
55 2 0.48822 0.481497 0.492582
56 1 0.489832 0.490682 0.495072
57 1 0.498059 0.491273 0.500086
58 2 0.499685 0.500474 0.502508
59 2 0.507908 0.501089 0.507525
60 3 0.509516 0.510292 0.509949
61 3 0.517702 0.510903 0.515025
62 3 0.519266 0.520098 0.5175
63 2 0.527389 0.520714 0.522677
64 3 0.528871 0.529904 0.525222
65 1 0.536905 0.530545 0.530534
66 3 0.538251 0.53973 0.533175
67 1 0.546174 0.54041 0.538647
68 3 0.547359 0.549582 0.541412
69 1 0.555164 0.550296 0.547046
70 2 0.556182 0.559444 0.549951
71 1 0.563877 0.560169 0.555734
72 1 0.564759 0.569289 0.558771
73 2 0.572365 0.570008 0.564672
74 2 0.57315 0.579099 0.567821
75 2 0.580671 0.579793 0.573833
76 3 0.581358 0.588853 0.577093
77 1 0.588786 0.58953 0.583222
78 3 0.589382 0.598567 0.586565
79 1 0.59673 0.599237 0.592791
80 2 0.597232 0.608253 0.596204
81 1 0.604508 0.608934 0.602513
82 1 0.60492 0.61794 0.60596