# Initialisation file of the particles

100  atoms
99  bonds
0  angles
0  dihedrals
0  impropers

3  atom types
2  bond types
0  angle types
0 dihedrals types
0 impropers types

0.0000   1000.0000 xlo xhi 
0.0000   1000.0000 ylo yhi 
0.0000   1000.0000 zlo zhi

Atom Type Labels

1  A
2  U
3  M

Bond Type Labels

1  Normal
2  M-M

Masses

   A    1
   U    1
   M    1

Atoms # bond

  1  1  M  0.0  500  50
  2  1  M  1.5  500  50
  3  1  A  3.0  500  50
  4  1  U  4.5  500  50
  5  1  M  6.0  500  50
  6  1  M  7.5  500  50
  7  1  M  9.0  500  50
  8  1  A  10.5  500  50
  9  1  U  12.0  500  50
  10  1  M  13.5  500  50
  11  1  U  15.0  500  50
  12  1  M  16.5  500  50
  13  1  U  18.0  500  50
  14  1  U  19.5  500  50
  15  1  M  21.0  500  50
  16  1  U  22.5  500  50
  17  1  U  24.0  500  50
  18  1  U  25.5  500  50
  19  1  M  27.0  500  50
  20  1  A  28.5  500  50
  21  1  A  30.0  500  50
  22  1  U  31.5  500  50
  23  1  A  33.0  500  50
  24  1  U  34.5  500  50
  25  1  A  36.0  500  50
  26  1  U  37.5  500  50
  27  1  U  39.0  500  50
  28  1  A  40.5  500  50
  29  1  U  42.0  500  50
  30  1  U  43.5  500  50
  31  1  U  45.0  500  50
  32  1  M  46.5  500  50
  33  1  U  48.0  500  50
  34  1  U  49.5  500  50
  35  1  A  51.0  500  50
  36  1  A  52.5  500  50
  37  1  A  54.0  500  50
  38  1  A  55.5  500  50
  39  1  U  57.0  500  50
  40  1  M  58.5  500  50
  41  1  M  60.0  500  50
  42  1  M  61.5  500  50
  43  1  A  63.0  500  50
  44  1  M  64.5  500  50
  45  1  M  66.0  500  50
  46  1  M  67.5  500  50
  47  1  A  69.0  500  50
  48  1  U  70.5  500  50
  49  1  M  72.0  500  50
  50  1  M  73.5  500  50
  51  1  M  75.0  500  50
  52  1  U  76.5  500  50
  53  1  U  78.0  500  50
  54  1  U  79.5  500  50
  55  1  M  81.0  500  50
  56  1  U  82.5  500  50
  57  1  M  84.0  500  50
  58  1  A  85.5  500  50
  59  1  M  87.0  500  50
  60  1  A  88.5  500  50
  61  1  A  90.0  500  50
  62  1  A  91.5  500  50
  63  1  U  93.0  500  50
  64  1  M  94.5  500  50
  65  1  M  96.0  500  50
  66  1  M  97.5  500  50
  67  1  M  99.0  500  50
  68  1  A  100.5  500  50
  69  1  U  102.0  500  50
  70  1  A  103.5  500  50
  71  1  U  105.0  500  50
  72  1  U  106.5  500  50
  73  1  U  108.0  500  50
  74  1  M  109.5  500  50
  75  1  M  111.0  500  50
  76  1  M  112.5  500  50
  77  1  U  114.0  500  50
  78  1  M  115.5  500  50
  79  1  M  117.0  500  50
  80  1  A  118.5  500  50
  81  1  M  120.0  500  50
  82  1  U  121.5  500  50
  83  1  U  123.0  500  50
  84  1  M  124.5  500  50
  85  1  U  126.0  500  50
  86  1  A  127.5  500  50
  87  1  M  129.0  500  50
  88  1  U  130.5  500  50
  89  1  A  132.0  500  50
  90  1  U  133.5  500  50
  91  1  U  135.0  500  50
  92  1  M  136.5  500  50
  93  1  U  138.0  500  50
  94  1  U  139.5  500  50
  95  1  U  141.0  500  50
  96  1  U  142.5  500  50
  97  1  M  144.0  500  50
  98  1  A  145.5  500  50
  99  1  A  147.0  500  50
  100  1  A  148.5  500  50

Bonds

  1  M-M  1  2
  2  Normal  2  3
  3  Normal  3  4
  4  Normal  4  5
  5  M-M  5  6
  6  M-M  6  7
  7  Normal  7  8
  8  Normal  8  9
  9  Normal  9  10
  10  Normal  10  11
  11  Normal  11  12
  12  Normal  12  13
  13  Normal  13  14
  14  Normal  14  15
  15  Normal  15  16
  16  Normal  16  17
  17  Normal  17  18
  18  Normal  18  19
  19  Normal  19  20
  20  Normal  20  21
  21  Normal  21  22
  22  Normal  22  23
  23  Normal  23  24
  24  Normal  24  25
  25  Normal  25  26
  26  Normal  26  27
  27  Normal  27  28
  28  Normal  28  29
  29  Normal  29  30
  30  Normal  30  31
  31  Normal  31  32
  32  Normal  32  33
  33  Normal  33  34
  34  Normal  34  35
  35  Normal  35  36
  36  Normal  36  37
  37  Normal  37  38
  38  Normal  38  39
  39  Normal  39  40
  40  M-M  40  41
  41  M-M  41  42
  42  Normal  42  43
  43  Normal  43  44
  44  M-M  44  45
  45  M-M  45  46
  46  Normal  46  47
  47  Normal  47  48
  48  Normal  48  49
  49  M-M  49  50
  50  M-M  50  51
  51  Normal  51  52
  52  Normal  52  53
  53  Normal  53  54
  54  Normal  54  55
  55  Normal  55  56
  56  Normal  56  57
  57  Normal  57  58
  58  Normal  58  59
  59  Normal  59  60
  60  Normal  60  61
  61  Normal  61  62
  62  Normal  62  63
  63  Normal  63  64
  64  M-M  64  65
  65  M-M  65  66
  66  M-M  66  67
  67  Normal  67  68
  68  Normal  68  69
  69  Normal  69  70
  70  Normal  70  71
  71  Normal  71  72
  72  Normal  72  73
  73  Normal  73  74
  74  M-M  74  75
  75  M-M  75  76
  76  Normal  76  77
  77  Normal  77  78
  78  M-M  78  79
  79  Normal  79  80
  80  Normal  80  81
  81  Normal  81  82
  82  Normal  82  83
  83  Normal  83  84
  84  Normal  84  85
  85  Normal  85  86
  86  Normal  86  87
  87  Normal  87  88
  88  Normal  88  89
  89  Normal  89  90
  90  Normal  90  91
  91  Normal  91  92
  92  Normal  92  93
  93  Normal  93  94
  94  Normal  94  95
  95  Normal  95  96
  96  Normal  96  97
  97  Normal  97  98
  98  Normal  98  99
  99  Normal  99  100
