# Initialisation file of the particles

100  atoms
99  bonds
0  angles
0  dihedrals
0  impropers

3  atom types
2  bond types
0  angle types
0 dihedrals types
0 impropers types

0.0000   50000.0000 xlo xhi 
0.0000   50000.0000 ylo yhi 
0.0000   50000.0000 zlo zhi

Atom Type Labels

1  A
2  U
3  M

Bond Type Labels

1  Normal
2  M-M

Masses

   A    1
   U    1
   M    1

Atoms # bond

  1  1  M  0  5000  5000
  2  1  M  400  5000  5000
  3  1  U  800  5000  5000
  4  1  M  1200  5000  5000
  5  1  A  1600  5000  5000
  6  1  A  2000  5000  5000
  7  1  M  2400  5000  5000
  8  1  M  2800  5000  5000
  9  1  A  3200  5000  5000
  10  1  A  3600  5000  5000
  11  1  M  4000  5000  5000
  12  1  A  4400  5000  5000
  13  1  M  4800  5000  5000
  14  1  M  5200  5000  5000
  15  1  U  5600  5000  5000
  16  1  U  6000  5000  5000
  17  1  A  6400  5000  5000
  18  1  M  6800  5000  5000
  19  1  U  7200  5000  5000
  20  1  M  7600  5000  5000
  21  1  U  8000  5000  5000
  22  1  A  8400  5000  5000
  23  1  M  8800  5000  5000
  24  1  U  9200  5000  5000
  25  1  A  9600  5000  5000
  26  1  M  10000  5000  5000
  27  1  U  10400  5000  5000
  28  1  M  10800  5000  5000
  29  1  A  11200  5000  5000
  30  1  A  11600  5000  5000
  31  1  M  12000  5000  5000
  32  1  A  12400  5000  5000
  33  1  U  12800  5000  5000
  34  1  A  13200  5000  5000
  35  1  M  13600  5000  5000
  36  1  M  14000  5000  5000
  37  1  M  14400  5000  5000
  38  1  U  14800  5000  5000
  39  1  M  15200  5000  5000
  40  1  M  15600  5000  5000
  41  1  M  16000  5000  5000
  42  1  A  16400  5000  5000
  43  1  A  16800  5000  5000
  44  1  U  17200  5000  5000
  45  1  M  17600  5000  5000
  46  1  A  18000  5000  5000
  47  1  M  18400  5000  5000
  48  1  M  18800  5000  5000
  49  1  U  19200  5000  5000
  50  1  U  19600  5000  5000
  51  1  A  20000  5000  5000
  52  1  M  20400  5000  5000
  53  1  M  20800  5000  5000
  54  1  A  21200  5000  5000
  55  1  U  21600  5000  5000
  56  1  M  22000  5000  5000
  57  1  A  22400  5000  5000
  58  1  U  22800  5000  5000
  59  1  A  23200  5000  5000
  60  1  A  23600  5000  5000
  61  1  U  24000  5000  5000
  62  1  M  24400  5000  5000
  63  1  U  24800  5000  5000
  64  1  A  25200  5000  5000
  65  1  U  25600  5000  5000
  66  1  M  26000  5000  5000
  67  1  M  26400  5000  5000
  68  1  M  26800  5000  5000
  69  1  A  27200  5000  5000
  70  1  U  27600  5000  5000
  71  1  M  28000  5000  5000
  72  1  M  28400  5000  5000
  73  1  M  28800  5000  5000
  74  1  U  29200  5000  5000
  75  1  U  29600  5000  5000
  76  1  A  30000  5000  5000
  77  1  A  30400  5000  5000
  78  1  M  30800  5000  5000
  79  1  U  31200  5000  5000
  80  1  A  31600  5000  5000
  81  1  U  32000  5000  5000
  82  1  M  32400  5000  5000
  83  1  A  32800  5000  5000
  84  1  M  33200  5000  5000
  85  1  U  33600  5000  5000
  86  1  U  34000  5000  5000
  87  1  A  34400  5000  5000
  88  1  M  34800  5000  5000
  89  1  M  35200  5000  5000
  90  1  U  35600  5000  5000
  91  1  M  36000  5000  5000
  92  1  U  36400  5000  5000
  93  1  U  36800  5000  5000
  94  1  M  37200  5000  5000
  95  1  A  37600  5000  5000
  96  1  U  38000  5000  5000
  97  1  A  38400  5000  5000
  98  1  M  38800  5000  5000
  99  1  M  39200  5000  5000
  100  1  A  39600  5000  5000

Bonds

  1  M-M  1  2
  2  Normal  2  3
  3  Normal  3  4
  4  Normal  4  5
  5  Normal  5  6
  6  Normal  6  7
  7  M-M  7  8
  8  Normal  8  9
  9  Normal  9  10
  10  Normal  10  11
  11  Normal  11  12
  12  Normal  12  13
  13  M-M  13  14
  14  Normal  14  15
  15  Normal  15  16
  16  Normal  16  17
  17  Normal  17  18
  18  Normal  18  19
  19  Normal  19  20
  20  Normal  20  21
  21  Normal  21  22
  22  Normal  22  23
  23  Normal  23  24
  24  Normal  24  25
  25  Normal  25  26
  26  Normal  26  27
  27  Normal  27  28
  28  Normal  28  29
  29  Normal  29  30
  30  Normal  30  31
  31  Normal  31  32
  32  Normal  32  33
  33  Normal  33  34
  34  Normal  34  35
  35  M-M  35  36
  36  M-M  36  37
  37  Normal  37  38
  38  Normal  38  39
  39  M-M  39  40
  40  M-M  40  41
  41  Normal  41  42
  42  Normal  42  43
  43  Normal  43  44
  44  Normal  44  45
  45  Normal  45  46
  46  Normal  46  47
  47  M-M  47  48
  48  Normal  48  49
  49  Normal  49  50
  50  Normal  50  51
  51  Normal  51  52
  52  M-M  52  53
  53  Normal  53  54
  54  Normal  54  55
  55  Normal  55  56
  56  Normal  56  57
  57  Normal  57  58
  58  Normal  58  59
  59  Normal  59  60
  60  Normal  60  61
  61  Normal  61  62
  62  Normal  62  63
  63  Normal  63  64
  64  Normal  64  65
  65  Normal  65  66
  66  M-M  66  67
  67  M-M  67  68
  68  Normal  68  69
  69  Normal  69  70
  70  Normal  70  71
  71  M-M  71  72
  72  M-M  72  73
  73  Normal  73  74
  74  Normal  74  75
  75  Normal  75  76
  76  Normal  76  77
  77  Normal  77  78
  78  Normal  78  79
  79  Normal  79  80
  80  Normal  80  81
  81  Normal  81  82
  82  Normal  82  83
  83  Normal  83  84
  84  Normal  84  85
  85  Normal  85  86
  86  Normal  86  87
  87  Normal  87  88
  88  M-M  88  89
  89  Normal  89  90
  90  Normal  90  91
  91  Normal  91  92
  92  Normal  92  93
  93  Normal  93  94
  94  Normal  94  95
  95  Normal  95  96
  96  Normal  96  97
  97  Normal  97  98
  98  M-M  98  99
  99  Normal  99  100
