read_data	InitialFile.txt
Reading data file ...
  orthogonal box = (0 0 0) to (50000 50000 50000)
  1 by 1 by 1 MPI processor grid
  reading atom labelmap ...
  reading bond labelmap ...
  reading atoms ...
  100 atoms
  scanning bonds ...
  1 = max bonds/atom
  reading bonds ...
  99 bonds
Finding 1-2 1-3 1-4 neighbors ...
  special bond factors lj:    0        0        0       
  special bond factors coul:  0        0        0       
     2 = max # of 1-2 neighbors
     2 = max # of 1-3 neighbors
     4 = max # of 1-4 neighbors
     6 = max # of special neighbors
  special bonds CPU = 0.000 seconds
  read_data CPU = 0.003 seconds

labelmap atom 1 A 2 U 3 M

# Dreiding potential information
neighbor	2.0 bin
neigh_modify every 1 delay 0 check yes

bond_style      harmonic
bond_coeff	Normal 0.1 450
bond_coeff	M-M 0.1 350

#angle_style     harmonic
#angle_coeff	Normal 60 109.5
#angle_coeff	M-M 120 109.5

#dihedral_style	multi/harmonic
#dihedral_coeff	1 1.73 -4.49 0.776 6.99 0.0
#dihedral_coeff	2 1.73 -4.49 0.776 6.99 0.0

pair_style	lj/cut 10.5
pair_coeff	* * 2 450 2000
pair_coeff	M M 2 350 2000

compute csym all centro/atom fcc
compute peratom all pe/atom


#####################################################
# Equilibration (Brownian dynamics at 300 K)

velocity 	all create 300.0 1231
fix		1 all nve/limit 100
fix 2 all brownian 300.0 12908410 gamma_t 2.0 rng gaussian # Compute a correct 300K simulation, check the value for gamma_t
thermo_style	custom step temp
thermo          10000
timestep	1
run		100000
Generated 0 of 3 mixed pair_coeff terms from geometric mixing rule
WARNING: One or more atoms are time integrated more than once (src/src/modify.cpp:289)
Neighbor list info ...
  update: every = 1 steps, delay = 0 steps, check = yes
  max neighbors/atom: 2000, page size: 100000
  master list distance cutoff = 2002
  ghost atom cutoff = 2002
  binsize = 1001, bins = 50 50 50
  2 neighbor lists, perpetual/occasional/extra = 1 1 0
  (1) pair lj/cut, perpetual
      attributes: half, newton on
      pair build: half/bin/newton
      stencil: half/bin/3d
      bin: standard
  (2) compute centro/atom, occasional
      attributes: full, newton on
      pair build: full/bin
      stencil: full/bin/3d
      bin: standard
Per MPI rank memory allocation (min/avg/max) = 5.891 | 5.891 | 5.891 Mbytes
   Step          Temp     
         0   300          
     10000   296.24142    
     20000   248.91048    
     30000   321.80328    
     40000   278.41779    
     50000   283.1071     
     60000   298.3782     
     70000   300.24027    
     80000   258.6292     
     90000   324.15576    
    100000   317.67531    
Loop time of 1.81913 on 1 procs for 100000 steps with 100 atoms

Performance: 4749.514 ns/day, 0.005 hours/ns, 54971.230 timesteps/s, 5.497 Matom-step/s
99.0% CPU use with 1 MPI tasks x no OpenMP threads

MPI task timing breakdown:
Section |  min time  |  avg time  |  max time  |%varavg| %total
---------------------------------------------------------------
Pair    | 0.32529    | 0.32529    | 0.32529    |   0.0 | 17.88
Bond    | 0.19046    | 0.19046    | 0.19046    |   0.0 | 10.47
Neigh   | 0.14105    | 0.14105    | 0.14105    |   0.0 |  7.75
Comm    | 0.039418   | 0.039418   | 0.039418   |   0.0 |  2.17
Output  | 0.00024824 | 0.00024824 | 0.00024824 |   0.0 |  0.01
Modify  | 1.0529     | 1.0529     | 1.0529     |   0.0 | 57.88
Other   |            | 0.06975    |            |       |  3.83

Nlocal:            100 ave         100 max         100 min
Histogram: 1 0 0 0 0 0 0 0 0 0
Nghost:              6 ave           6 max           6 min
Histogram: 1 0 0 0 0 0 0 0 0 0
Neighs:            139 ave         139 max         139 min
Histogram: 1 0 0 0 0 0 0 0 0 0
FullNghs:            0 ave           0 max           0 min
Histogram: 1 0 0 0 0 0 0 0 0 0

Total # of neighbors = 139
Ave neighs/atom = 1.39
Ave special neighs/atom = 5.88
Neighbor list builds = 1329
Dangerous builds = 0
unfix 1
unfix 2
write_restart 	restart.${simname}.dreiding1
write_restart 	restart.InitialFile.dreiding1
System init for write_restart ...
Generated 0 of 3 mixed pair_coeff terms from geometric mixing rule

#####################################################
# Define Settings
compute eng all pe/atom
compute eatoms all reduce sum c_eng

#####################################################
# Minimization

dump mydmp all atom 100 dump.lammpstrj

reset_timestep 0
fix 1 all nvt temp 300.0 300.0 100.0
thermo 20
thermo_style custom step pe lx ly lz press pxx pyy pzz c_eatoms
min_style cg
minimize 1.0e-4 1.0e-6 100 1000
Generated 0 of 3 mixed pair_coeff terms from geometric mixing rule
Per MPI rank memory allocation (min/avg/max) = 7.016 | 7.016 | 7.016 Mbytes
   Step         PotEng           Lx             Ly             Lz           Press           Pxx            Pyy            Pzz          c_eatoms   
         0   284.52705      50000          50000          50000          5.7392071e-06  1.6050492e-05  7.1411495e-07  4.5301404e-07  284.52705    
        20   231.02323      50000          50000          50000          5.2349605e-06  1.461496e-05   6.6816267e-07  4.2175902e-07  231.02323    
        40   191.40866      50000          50000          50000          4.6877797e-06  1.3076287e-05  6.0106461e-07  3.8598708e-07  191.40866    
        60   156.61276      50000          50000          50000          4.1251183e-06  1.1504747e-05  5.2394555e-07  3.4666261e-07  156.61276    
        80   125.29962      50000          50000          50000          3.5615988e-06  9.9355595e-06  4.4414442e-07  3.0509236e-07  125.29962    
       100   98.560467      50000          50000          50000          3.0323509e-06  8.4627854e-06  3.6966356e-07  2.6460359e-07  98.560467    
Loop time of 0.00262664 on 1 procs for 100 steps with 100 atoms

96.4% CPU use with 1 MPI tasks x no OpenMP threads

Minimization stats:
  Stopping criterion = max iterations
  Energy initial, next-to-last, final = 
      284.527046031488   99.7932491060061   98.5604672080405
  Force two-norm initial, final = 6.4409833 2.6605508
  Force max component initial, final = 1.2793647 0.57704199
  Final line search alpha, max atom move = 0.17230588 0.09942773
  Iterations, force evaluations = 100 100

MPI task timing breakdown:
Section |  min time  |  avg time  |  max time  |%varavg| %total
---------------------------------------------------------------
Pair    | 0.00057262 | 0.00057262 | 0.00057262 |   0.0 | 21.80
Bond    | 0.00024031 | 0.00024031 | 0.00024031 |   0.0 |  9.15
Neigh   | 0.0011512  | 0.0011512  | 0.0011512  |   0.0 | 43.83
Comm    | 5.1019e-05 | 5.1019e-05 | 5.1019e-05 |   0.0 |  1.94
Output  | 0.00019211 | 0.00019211 | 0.00019211 |   0.0 |  7.31
Modify  | 0          | 0          | 0          |   0.0 |  0.00
Other   |            | 0.0004194  |            |       | 15.97

Nlocal:            100 ave         100 max         100 min
Histogram: 1 0 0 0 0 0 0 0 0 0
Nghost:              5 ave           5 max           5 min
Histogram: 1 0 0 0 0 0 0 0 0 0
Neighs:            140 ave         140 max         140 min
Histogram: 1 0 0 0 0 0 0 0 0 0
FullNghs:            0 ave           0 max           0 min
Histogram: 1 0 0 0 0 0 0 0 0 0

Total # of neighbors = 140
Ave neighs/atom = 1.4
Ave special neighs/atom = 5.88
Neighbor list builds = 11
Dangerous builds = 0

#molecule mol1closeTo3PRE mol1closeTo3PRE.txt
#molecule mol1closeTo3POST mol1closeTo3POST.txt
#molecule mol3closeTo1POST mol3closeTo1POST.txt
#molecule mol2closeTo3PRE mol2closeTo3PRE.txt
#molecule mol2closeTo3POST mol2closeTo3POST.txt
#molecule mol3closeTo2POST mol3closeTo2POST.txt
#molecule mol2closeTo1PRE mol2closeTo1PRE.txt
#molecule mol2closeTo1POST mol2closeTo1POST.txt

molecule mol molTemplate.txt
Read molecule template mol:
  1 molecules
  0 fragments
  10 atoms with max type 3
  9 bonds with max type 2
  0 angles with max type 0
  0 dihedrals with max type 0
  0 impropers with max type 0

#####################################################
# Do the reactions
fix 3 all bond/react   react reax all 1 0 10 mol mol map_1to2.txt molecule intra   #react reac1to2 all 1 0 10 mol1closeTo3PRE mol1closeTo3POST map_1to2.txt molecule intra   #react reac2to3 all 1 0 10 mol2closeTo3PRE mol2closeTo3POST map_2to3.txt molecule intra   #react reac3to2 all 1 0 10 mol2closeTo3PRE mol3closeTo2POST map_3to2.txt molecule intra  #react reac2to1 all 1 0 10 mol2closeTo1PRE mol2closeTo1POST map_2to1.txt molecule intra
dynamic group bond_react_MASTER_group defined

run 100000

CITE-CITE-CITE-CITE-CITE-CITE-CITE-CITE-CITE-CITE-CITE-CITE-CITE

Your simulation uses code contributions which should be cited:

- fix bond/react: reacter.org doi:10.1016/j.polymer.2017.09.038, doi:10.1021/acs.macromol.0c02012

@Article{Gissinger17,
 author = {J. R. Gissinger and B. D. Jensen and K. E. Wise},
 title = {Modeling Chemical Reactions in Classical Molecular Dynamics Simulations},
 journal = {Polymer},
 year =    2017,
 volume =  128,
 pages =   {211--217}
}

@Article{Gissinger20,
 author = {J. R. Gissinger, B. D. Jensen, K. E. Wise},
 title = {{REACTER}: A Heuristic Method for Reactive Molecular Dynamics},
 journal = {Macromolecules},
 year =    2020,
 volume =  53,
 number =  22,
 pages =   {9953--9961}
}

CITE-CITE-CITE-CITE-CITE-CITE-CITE-CITE-CITE-CITE-CITE-CITE-CITE

Generated 0 of 3 mixed pair_coeff terms from geometric mixing rule
Neighbor list info ...
  update: every = 1 steps, delay = 0 steps, check = yes
  max neighbors/atom: 2000, page size: 100000
  master list distance cutoff = 2002
  ghost atom cutoff = 2002
  binsize = 1001, bins = 50 50 50
  3 neighbor lists, perpetual/occasional/extra = 1 2 0
  (1) pair lj/cut, perpetual
      attributes: half, newton on
      pair build: half/bin/newton
      stencil: half/bin/3d
      bin: standard
  (2) compute centro/atom, occasional
      attributes: full, newton on
      pair build: full/bin
      stencil: full/bin/3d
      bin: standard
  (3) fix bond/react, occasional, copy from (1)
      attributes: half, newton on
      pair build: copy
      stencil: none
      bin: none
Per MPI rank memory allocation (min/avg/max) = 7.333 | 7.333 | 7.333 Mbytes
   Step         PotEng           Lx             Ly             Lz           Press           Pxx            Pyy            Pzz          c_eatoms   
       100   98.560467      50000          50000          50000          3.0323509e-06  8.4627854e-06  3.6966356e-07  2.6460359e-07  98.560467    
       120   101.22175      50000          50000          50000          2.9856375e-06  8.3527039e-06  3.6185408e-07  2.4235451e-07  101.22175    
       140   106.50502      50000          50000          50000          2.9121669e-06  8.1666855e-06  3.5072441e-07  2.1909078e-07  106.50502    
       160   112.30786      50000          50000          50000          2.8153433e-06  7.9137429e-06  3.365272e-07   1.9575968e-07  112.30786    
       180   116.07798      50000          50000          50000          2.6987063e-06  7.6033543e-06  3.1954554e-07  1.7321906e-07  116.07798    
       200   115.75675      50000          50000          50000          2.5649747e-06  7.2427446e-06  3.0000981e-07  1.5216976e-07  115.75675    
       220   110.4938       50000          50000          50000          2.4154715e-06  6.8353196e-06  2.7801023e-07  1.3308473e-07  110.4938     
       240   100.93251      50000          50000          50000          2.2501108e-06  6.3809299e-06  2.5335513e-07  1.1604742e-07  100.93251    
       260   89.034478      50000          50000          50000          2.0681727e-06  5.8783994e-06  2.2551421e-07  1.006045e-07   89.034478    
       280   77.418098      50000          50000          50000          1.8697773e-06  5.3294121e-06  1.9395415e-07  8.5965648e-08  77.418098    
       300   68.310314      50000          50000          50000          1.6572456e-06  4.7418004e-06  1.5859181e-07  7.1344569e-08  68.310314    
       320   62.618409      50000          50000          50000          1.4359317e-06  4.1312143e-06  1.2021431e-07  5.6366544e-08  62.618409    
       340   59.669783      50000          50000          50000          1.2135145e-06  3.5170124e-06  8.1299716e-08  4.2231375e-08  59.669783    
       360   57.846271      50000          50000          50000          9.9462541e-07  2.9092205e-06  4.4231747e-08  3.0423995e-08  57.846271    
       380   55.556925      50000          50000          50000          7.7972805e-07  2.3101016e-06  8.995722e-09   2.0086818e-08  55.556925    
       400   51.83366       50000          50000          50000          5.7016561e-07  1.7248303e-06 -2.4474302e-08  1.0140877e-08  51.83366     
       420   46.57727       50000          50000          50000          3.6821908e-07  1.1600909e-06 -5.5616929e-08  1.8324916e-10  46.57727     
       440   40.459075      50000          50000          50000          1.759023e-07   6.2122808e-07 -8.3711837e-08 -9.8093537e-09  40.459075    
       460   34.524724      50000          50000          50000         -5.4099321e-09  1.1168359e-07 -1.0818573e-07 -1.9727663e-08  34.524724    
       480   29.733052      50000          50000          50000         -1.7480791e-07 -3.6622404e-07 -1.2872983e-07 -2.9469847e-08  29.733052    
       500   26.611147      50000          50000          50000         -3.3153205e-07 -8.10362e-07   -1.4527263e-07 -3.8961509e-08  26.611147    
       520   25.149039      50000          50000          50000         -4.7479946e-07 -1.2183745e-06 -1.5790395e-07 -4.8119878e-08  25.149039    
       540   24.914095      50000          50000          50000         -6.038593e-07  -1.5879378e-06 -1.6681408e-07 -5.6826073e-08  24.914095    
       560   25.305682      50000          50000          50000         -7.1815239e-07 -1.9172891e-06 -1.7225266e-07 -6.4915406e-08  25.305682    
       580   25.79589       50000          50000          50000         -8.1747302e-07 -2.2057433e-06 -1.7449865e-07 -7.2177056e-08  25.79589     
       600   26.101063      50000          50000          50000         -9.0200953e-07 -2.4538298e-06 -1.7383794e-07 -7.8360851e-08  26.101063    
       620   26.1924        50000          50000          50000         -9.7230948e-07 -2.6631853e-06 -1.705494e-07  -8.3193766e-08  26.1924      
       640   26.206734      50000          50000          50000         -1.0291589e-06 -2.8361725e-06 -1.6489794e-07 -8.6406238e-08  26.206734    
       660   26.315892      50000          50000          50000         -1.0734341e-06 -2.9754054e-06 -1.5713221e-07 -8.7764816e-08  26.315892    
       680   26.613615      50000          50000          50000         -1.1059916e-06 -3.0833835e-06 -1.4748534e-07 -8.7105812e-08  26.613615    
       700   27.082045      50000          50000          50000         -1.1276127e-06 -3.1622927e-06 -1.3617955e-07 -8.4365933e-08  27.082045    
       720   27.637662      50000          50000          50000         -1.1390187e-06 -3.2140092e-06 -1.2343819e-07 -7.9608726e-08  27.637662    
       740   28.216836      50000          50000          50000         -1.1409396e-06 -3.2402684e-06 -1.0950593e-07 -7.3044552e-08  28.216836    
       760   28.861208      50000          50000          50000         -1.1341789e-06 -3.2428359e-06 -9.4667435e-08 -6.5033355e-08  28.861208    
       780   29.732164      50000          50000          50000         -1.1196435e-06 -3.2236277e-06 -7.9246407e-08 -5.6056359e-08  29.732164    
       800   31.049135      50000          50000          50000         -1.0982966e-06 -3.1846487e-06 -6.3579814e-08 -4.666113e-08   31.049135    
       820   32.977251      50000          50000          50000         -1.0710543e-06 -3.127773e-06  -4.7984131e-08 -3.7405844e-08  32.977251    
       840   35.51284       50000          50000          50000         -1.038699e-06  -3.0545438e-06 -3.2730867e-08 -2.8822254e-08  35.51284     
       860   38.454024      50000          50000          50000         -1.0018385e-06 -2.9660831e-06 -1.8035068e-08 -2.1397428e-08  38.454024    
       880   41.470494      50000          50000          50000         -9.6095441e-07 -2.863243e-06  -4.0539957e-09 -1.5566283e-08  41.470494    
       900   44.251506      50000          50000          50000         -9.1651051e-07 -2.7469315e-06  9.1066097e-09 -1.1706636e-08  44.251506    
       920   46.659388      50000          50000          50000         -8.6907001e-07 -2.6184627e-06  2.1381808e-08 -1.0129165e-08  46.659388    
       940   48.808573      50000          50000          50000         -8.1935544e-07 -2.4797466e-06  3.2736955e-08 -1.1056648e-08  48.808573    
       960   51.022098      50000          50000          50000         -7.6820944e-07 -2.3331984e-06  4.3161885e-08 -1.4591839e-08  51.022098    
       980   53.674964      50000          50000          50000         -7.1645775e-07 -2.1813641e-06  5.2671108e-08 -2.0680227e-08  53.674964    
      1000   56.991196      50000          50000          50000         -6.6472547e-07 -2.0264038e-06  6.1306644e-08 -2.9079304e-08  56.991196    
      1020   60.889726      50000          50000          50000         -6.1329017e-07 -1.8696608e-06  6.9136814e-08 -3.9346487e-08  60.889726    
      1040   64.964458      50000          50000          50000         -5.6203976e-07 -1.7115116e-06  7.6244847e-08 -5.0852548e-08  64.964458    
      1060   68.604178      50000          50000          50000         -5.1058087e-07 -1.5516278e-06  8.27048e-08   -6.2819617e-08  68.604178    
      1080   71.225185      50000          50000          50000         -4.5844307e-07 -1.3895032e-06  8.8549733e-08 -7.4375729e-08  71.225185    
      1100   72.506461      50000          50000          50000         -4.0531599e-07 -1.225082e-06   9.3746497e-08 -8.4612453e-08  72.506461    
      1120   72.530027      50000          50000          50000         -3.5121037e-07 -1.0591947e-06  9.8196271e-08 -9.2632644e-08  72.530027    
      1140   71.752974      50000          50000          50000         -2.964648e-07  -8.9356555e-07  1.0176205e-07 -9.7590898e-08  71.752974    
      1160   70.803045      50000          50000          50000         -2.4160045e-07 -7.3035253e-07  1.0429775e-07 -9.8746567e-08  70.803045    
      1180   70.181675      50000          50000          50000         -1.8710857e-07 -5.7144792e-07  1.0565942e-07 -9.5537206e-08  70.181675    
      1200   70.018223      50000          50000          50000         -1.3328791e-07 -4.1791489e-07  1.0570559e-07 -8.7654426e-08  70.018223    
      1220   70.001097      50000          50000          50000         -8.0226064e-08 -2.6987659e-07  1.042999e-07  -7.51015e-08    70.001097    
      1240   69.526771      50000          50000          50000         -2.7948437e-08 -1.2693882e-07  1.0131847e-07 -5.8224958e-08  69.526771    
      1260   68.001087      50000          50000          50000          2.333069e-08   1.1049978e-08  9.6660321e-08 -3.7718228e-08  68.001087    
      1280   65.144191      50000          50000          50000          7.2976119e-08  1.4325232e-07  9.0265019e-08 -1.4588985e-08  65.144191    
      1300   61.154067      50000          50000          50000          1.1986186e-07  2.6750687e-07  8.2148834e-08  9.9298747e-09  61.154067    
      1320   56.644995      50000          50000          50000          1.6254938e-07  3.8064265e-07  7.2462601e-08  3.4542891e-08  56.644995    
      1340   52.388504      50000          50000          50000          1.9966142e-07  4.7936741e-07  6.1530486e-08  5.8086379e-08  52.388504    
      1360   48.990602      50000          50000          50000          2.3020801e-07  5.6123251e-07  4.9780044e-08  7.9611469e-08  48.990602    
      1380   46.660277      50000          50000          50000          2.5363743e-07  6.2506399e-07  3.7568622e-08  9.8279672e-08  46.660277    
      1400   45.160861      50000          50000          50000          2.6974451e-07  6.7087413e-07  2.5094744e-08  1.1326467e-07  45.160861    
      1420   43.929979      50000          50000          50000          2.7864055e-07  6.9960747e-07  1.2479515e-08  1.2383466e-07  43.929979    
      1440   42.318071      50000          50000          50000          2.8071908e-07  7.1279391e-07 -1.3248651e-10  1.2949581e-07  42.318071    
      1460   39.866427      50000          50000          50000          2.765398e-07   7.1210635e-07 -1.2549453e-08  1.3006252e-07  39.866427    
      1480   36.506788      50000          50000          50000          2.6670475e-07  6.9899672e-07 -2.4549556e-08  1.2566708e-07  36.506788    
      1500   32.590495      50000          50000          50000          2.5182295e-07  6.7461421e-07 -3.5897341e-08  1.1675199e-07  32.590495    
      1520   28.740963      50000          50000          50000          2.3259972e-07  6.4009075e-07 -4.6349702e-08  1.0405811e-07  28.740963    
      1540   25.590042      50000          50000          50000          2.0998681e-07  5.9702211e-07 -5.5658374e-08  8.8596705e-08  25.590042    
      1560   23.518866      50000          50000          50000          1.8528049e-07  5.4784414e-07 -6.3581544e-08  7.157888e-08   23.518866    
      1580   22.526838      50000          50000          50000          1.6007595e-07  4.9585192e-07 -6.9911469e-08  5.4287387e-08  22.526838    
      1600   22.262613      50000          50000          50000          1.3606235e-07  4.4476957e-07 -7.4504356e-08  3.7921827e-08  22.262613    
      1620   22.204855      50000          50000          50000          1.1478466e-07  3.9815859e-07 -7.7285568e-08  2.3480949e-08  22.204855    
      1640   21.884039      50000          50000          50000          9.7439405e-08  3.5883667e-07 -7.822655e-08   1.1708091e-08  21.884039    
      1660   21.063335      50000          50000          50000          8.4746003e-08  3.2847974e-07 -7.7315298e-08  3.0735624e-09  21.063335    
      1680   19.812139      50000          50000          50000          7.6903868e-08  3.0748236e-07 -7.4538534e-08 -2.2322218e-09  19.812139    
      1700   18.453617      50000          50000          50000          7.3646452e-08  2.9511387e-07 -6.9878085e-08 -4.2964248e-09  18.453617    
      1720   17.409243      50000          50000          50000          7.437211e-08   2.8989651e-07 -6.3316917e-08 -3.4632571e-09  17.409243    
      1740   17.02276       50000          50000          50000          7.8325778e-08  2.9011715e-07 -5.4850251e-08 -2.895656e-10   17.02276     
      1760   17.420288      50000          50000          50000          8.4750674e-08  2.9422992e-07 -4.449949e-08   4.5215936e-09  17.420288    
      1780   18.476754      50000          50000          50000          9.297967e-08   3.0106519e-07 -3.2327272e-08  1.0201095e-08  18.476754    
      1800   19.891889      50000          50000          50000          1.0244712e-07  3.0979648e-07 -1.8451698e-08  1.599657e-08   19.891889    
      1820   21.333102      50000          50000          50000          1.1264268e-07  3.1973673e-07 -3.0567457e-09  2.1248058e-08  21.333102    
      1840   22.582967      50000          50000          50000          1.2305636e-07  3.301178e-07   1.3603104e-08  2.5448192e-08  22.582967    
      1860   23.627619      50000          50000          50000          1.3314426e-07  3.399614e-07   3.1197777e-08  2.8273599e-08  23.627619    
      1880   24.650435      50000          50000          50000          1.4230336e-07  3.4805516e-07  4.9292617e-08  2.9562319e-08  24.650435    
      1900   25.952087      50000          50000          50000          1.4984986e-07  3.5304988e-07  6.7272913e-08  2.9226784e-08  25.952087    
      1920   27.807403      50000          50000          50000          1.5504532e-07  3.5365805e-07  8.428498e-08   2.7192915e-08  27.807403    
      1940   30.324116      50000          50000          50000          1.5731818e-07  3.4910286e-07  9.9341665e-08  2.3510005e-08  30.324116    
      1960   33.366808      50000          50000          50000          1.5653414e-07  3.3951812e-07  1.1155868e-07  1.852563e-08   33.366808    
      1980   36.599002      50000          50000          50000          1.5300817e-07  3.2583775e-07  1.2030614e-07  1.2880633e-08  36.599002    
      2000   39.622508      50000          50000          50000          1.472737e-07   3.0923778e-07  1.2522857e-07  7.3547451e-09  39.622508    
      2020   42.1351        50000          50000          50000          1.3982621e-07  2.905352e-07   1.2622379e-07  2.7196432e-09  42.1351      
      2040   44.029107      50000          50000          50000          1.3096503e-07  2.6981763e-07  1.2342716e-07 -3.4971476e-10  44.029107    
      2060   45.393445      50000          50000          50000          1.2075249e-07  2.4638177e-07  1.1719959e-07 -1.3238884e-09  45.393445    
      2080   46.429355      50000          50000          50000          1.0906365e-07  2.1893271e-07  1.0810804e-07  1.5019771e-10  46.429355    
      2100   47.325793      50000          50000          50000          9.5680456e-08  1.85924e-07    9.6891263e-08  4.2261032e-09  47.325793    
      2120   48.153168      50000          50000          50000          8.0380708e-08  1.4589361e-07  8.4407916e-08  1.08406e-08    48.153168    
      2140   48.821204      50000          50000          50000          6.2984372e-08  9.7679551e-08  7.1569262e-08  1.9704303e-08  48.821204    
      2160   49.115095      50000          50000          50000          4.3345018e-08  4.0470104e-08  5.9261839e-08  3.030311e-08   49.115095    
      2180   48.788782      50000          50000          50000          2.1302507e-08 -2.627373e-08   4.8268084e-08  4.1913166e-08  48.788782    
      2200   47.670789      50000          50000          50000         -3.3681483e-09 -1.0292975e-07  3.9193002e-08  5.3632299e-08  47.670789    
      2220   45.736075      50000          50000          50000         -3.0975125e-08 -1.8976064e-07  3.2404097e-08  6.4431172e-08  45.736075    
      2240   43.115593      50000          50000          50000         -6.1874234e-08 -2.8683705e-07  2.7989963e-08  7.3224388e-08  43.115593    
      2260   40.044828      50000          50000          50000         -9.638465e-08  -3.9384492e-07  2.5739353e-08  7.8951621e-08  40.044828    
      2280   36.780285      50000          50000          50000         -1.3468554e-07 -5.0983604e-07  2.5135695e-08  8.0643739e-08  36.780285    
      2300   33.525324      50000          50000          50000         -1.7671815e-07 -6.3297904e-07  2.5364867e-08  7.7459722e-08  33.525324    
      2320   30.396812      50000          50000          50000         -2.2199885e-07 -7.6032467e-07  2.5446758e-08  6.8881374e-08  30.396812    
      2340   27.427847      50000          50000          50000         -2.6913515e-07 -8.8791827e-07  2.4869539e-08  5.564329e-08   27.427847    
      2360   24.61534       50000          50000          50000         -3.1611424e-07 -1.0124292e-06  2.4026495e-08  4.0060029e-08  24.61534     
      2380   22.007617      50000          50000          50000         -3.6224196e-07 -1.1330651e-06  2.2881622e-08  2.3457573e-08  22.007617    
      2400   19.775328      50000          50000          50000         -4.0788753e-07 -1.2501192e-06  2.0661879e-08  5.7947226e-09  19.775328    
      2420   18.14135       50000          50000          50000         -4.5308842e-07 -1.363321e-06   1.6786048e-08 -1.2730349e-08  18.14135     
      2440   17.264329      50000          50000          50000         -4.9737829e-07 -1.4717197e-06  1.1059087e-08 -3.1474247e-08  17.264329    
      2460   17.152949      50000          50000          50000         -5.3995981e-07 -1.5738337e-06  3.5668764e-09 -4.9612604e-08  17.152949    
      2480   17.652578      50000          50000          50000         -5.7982284e-07 -1.66776e-06   -5.4019584e-09 -6.630659e-08   17.652578    
      2500   18.504637      50000          50000          50000         -6.1586304e-07 -1.7513611e-06 -1.5420829e-08 -8.0807168e-08  18.504637    
      2520   19.451759      50000          50000          50000         -6.4701066e-07 -1.8225159e-06 -2.5989173e-08 -9.2526918e-08  19.451759    
      2540   20.33657       50000          50000          50000         -6.7234686e-07 -1.87937e-06   -3.6590081e-08 -1.0108054e-07  20.33657     
      2560   21.166624      50000          50000          50000         -6.9116147e-07 -1.9204556e-06 -4.6734863e-08 -1.0629396e-07  21.166624    
      2580   22.102302      50000          50000          50000         -7.0296479e-07 -1.9447127e-06 -5.5993785e-08 -1.0818792e-07  22.102302    
      2600   23.387419      50000          50000          50000         -7.0744737e-07 -1.9513797e-06 -6.4016762e-08 -1.0694564e-07  23.387419    
      2620   25.251019      50000          50000          50000         -7.044134e-07  -1.9398151e-06 -7.0549869e-08 -1.0287525e-07  25.251019    
      2640   27.804765      50000          50000          50000         -6.9373598e-07 -1.9093781e-06 -7.5452863e-08 -9.6376975e-08  27.804765    
      2660   30.990525      50000          50000          50000         -6.7533951e-07 -1.8593816e-06 -7.8717303e-08 -8.7919623e-08  30.990525    
      2680   34.580311      50000          50000          50000         -6.4923237e-07 -1.7892095e-06 -8.0472512e-08 -7.8015126e-08  34.580311    
      2700   38.234209      50000          50000          50000         -6.1555994e-07 -1.6985561e-06 -8.0956661e-08 -6.7167056e-08  38.234209    
      2720   41.598052      50000          50000          50000         -5.7464763e-07 -1.5877e-06    -8.0450131e-08 -5.5792745e-08  41.598052    
      2740   44.407207      50000          50000          50000         -5.2702193e-07 -1.457695e-06  -7.9206681e-08 -4.4164111e-08  44.407207    
      2760   46.554841      50000          50000          50000         -4.7340678e-07 -1.3103986e-06 -7.7415763e-08 -3.2405987e-08  46.554841    
      2780   48.096897      50000          50000          50000         -4.1468581e-07 -1.1483264e-06 -7.5191246e-08 -2.0539749e-08  48.096897    
      2800   49.195787      50000          50000          50000         -3.5182745e-07 -9.7437457e-07 -7.2568392e-08 -8.5393716e-09  49.195787    
      2820   50.031956      50000          50000          50000         -2.8578736e-07 -7.9147568e-07 -6.9505051e-08  3.6186399e-09  50.031956    
      2840   50.715065      50000          50000          50000         -2.174231e-07  -6.0229151e-07 -6.5893036e-08  1.5915246e-08  50.715065    
      2860   51.240363      50000          50000          50000         -1.4743387e-07 -4.089784e-07  -6.1583713e-08  2.8260521e-08  51.240363    
      2880   51.494279      50000          50000          50000         -7.6354479e-08 -2.1311594e-07 -5.6425629e-08  4.0478131e-08  51.494279    
      2900   51.304655      50000          50000          50000         -4.6018478e-09 -1.5802323e-08 -5.0306963e-08  5.2303743e-08  51.304655    
      2920   50.515362      50000          50000          50000          6.7445629e-08  1.821332e-07  -4.3193342e-08  6.3397031e-08  50.515362    
      2940   49.052504      50000          50000          50000          1.3935839e-07  3.7986225e-07 -3.5152888e-08  7.3365807e-08  49.052504    
      2960   46.961884      50000          50000          50000          2.1058647e-07  5.7632304e-07 -2.6363824e-08  8.1800188e-08  46.961884    
      2980   44.398172      50000          50000          50000          2.8042001e-07  7.7004741e-07 -1.7102923e-08  8.8315552e-08  44.398172    
      3000   41.579822      50000          50000          50000          3.4800331e-07  9.5911246e-07 -7.7112749e-09  9.2608739e-08  41.579822    
      3020   38.723401      50000          50000          50000          4.124227e-07   1.1412436e-06  1.4784306e-09  9.4546064e-08  38.723401    
      3040   35.990657      50000          50000          50000          4.7291443e-07  1.3141712e-06  1.0270723e-08  9.4301361e-08  35.990657    
      3060   33.46245       50000          50000          50000          5.2910722e-07  1.4761524e-06  1.8720129e-08  9.2449096e-08  33.46245     
      3080   31.155738      50000          50000          50000          5.8099378e-07  1.6261788e-06  2.7028975e-08  8.9773594e-08  31.155738    
      3100   29.067499      50000          50000          50000          6.2854796e-07  1.7634752e-06  3.5281782e-08  8.6886937e-08  29.067499    
      3120   27.208447      50000          50000          50000          6.7146565e-07  1.8869006e-06  4.337637e-08   8.411997e-08   27.208447    
      3140   25.605008      50000          50000          50000          7.0924586e-07  1.9949082e-06  5.1159605e-08  8.1669767e-08  25.605008    
      3160   24.280049      50000          50000          50000          7.4136596e-07  2.0858837e-06  5.8529767e-08  7.9684406e-08  24.280049    
      3180   23.232751      50000          50000          50000          7.6739735e-07  2.158497e-06   6.5456853e-08  7.8238219e-08  23.232751    
      3200   22.431249      50000          50000          50000          7.8706431e-07  2.2119349e-06  7.1973088e-08  7.7284925e-08  22.431249    
      3220   21.82273       50000          50000          50000          8.0026278e-07  2.2459992e-06  7.8157495e-08  7.6631588e-08  21.82273     
      3240   21.35716       50000          50000          50000          8.0704702e-07  2.261083e-06   8.4116813e-08  7.5941253e-08  21.35716     
      3260   21.013857      50000          50000          50000          8.0759461e-07  2.2580578e-06  8.996307e-08   7.4762912e-08  21.013857    
      3280   20.817469      50000          50000          50000          8.0216389e-07  2.2381168e-06  9.5790396e-08  7.2584469e-08  20.817469    
      3300   20.833285      50000          50000          50000          7.9105701e-07  2.2026146e-06  1.0165465e-07  6.8901826e-08  20.833285    
      3320   21.140194      50000          50000          50000          7.7459464e-07  2.1529299e-06  1.0755893e-07  6.3295124e-08  21.140194    
      3340   21.789834      50000          50000          50000          7.531e-07      2.0903511e-06  1.1344672e-07  5.5502158e-08  21.789834    
      3360   22.767145      50000          50000          50000          7.2688256e-07  2.0159649e-06  1.1920338e-07  4.5479425e-08  22.767145    
      3380   23.976505      50000          50000          50000          6.9621697e-07  1.9305421e-06  1.2466555e-07  3.3443306e-08  23.976505    
      3400   25.249874      50000          50000          50000          6.6129205e-07  1.8343553e-06  1.296359e-07   1.9884953e-08  25.249874    
      3420   26.397839      50000          50000          50000          6.2214708e-07  1.7269973e-06  1.3389377e-07  5.5501228e-09  26.397839    
      3440   27.274551      50000          50000          50000          5.7857874e-07  1.607194e-06   1.3717862e-07 -8.6364376e-09  27.274551    
      3460   27.83935       50000          50000          50000          5.3005964e-07  1.4727671e-06  1.391255e-07  -2.1713655e-08  27.83935     
      3480   28.187648      50000          50000          50000          4.7580517e-07  1.3209986e-06  1.3922024e-07 -3.2803344e-08  28.187648    
      3500   28.529239      50000          50000          50000          4.1511592e-07  1.1494709e-06  1.3692508e-07 -4.1048208e-08  28.529239    
      3520   29.11029       50000          50000          50000          3.4774593e-07  9.568569e-07   1.3189454e-07 -4.5513658e-08  29.11029     
      3540   30.108705      50000          50000          50000          2.7396122e-07  7.4318504e-07  1.2402802e-07 -4.5329392e-08  30.108705    
      3560   31.551538      50000          50000          50000          1.9440867e-07  5.0979025e-07  1.133824e-07  -3.9946639e-08  31.551538    
      3580   33.290995      50000          50000          50000          1.1000153e-07  2.5920536e-07  1.0009331e-07 -2.9294082e-08  33.290995    
      3600   35.049814      50000          50000          50000          2.1827533e-08 -5.0488631e-09  8.4341151e-08 -1.3809689e-08  35.049814    
      3620   36.520155      50000          50000          50000         -6.8960228e-08 -2.7882354e-07  6.6341159e-08  5.6016933e-09  36.520155    
      3640   37.47895       50000          50000          50000         -1.6126062e-07 -5.5777848e-07  4.6344936e-08  2.7651685e-08  37.47895     
      3660   37.875016      50000          50000          50000         -2.5411469e-07 -8.3777256e-07  2.4651481e-08  5.0776997e-08  37.875016    
      3680   37.852492      50000          50000          50000         -3.4674227e-07 -1.1151175e-06  1.6260359e-09  7.3264618e-08  37.852492    
      3700   37.697738      50000          50000          50000         -4.3852051e-07 -1.3866698e-06 -2.2278665e-08  9.3386961e-08  37.697738    
      3720   37.725406      50000          50000          50000         -5.2892119e-07 -1.6497964e-06 -4.6506673e-08  1.0953953e-07  37.725406    
      3740   38.144741      50000          50000          50000         -6.1743787e-07 -1.9022883e-06 -7.0396169e-08  1.2037083e-07  38.144741    
      3760   38.959218      50000          50000          50000         -7.0353879e-07 -2.1423145e-06 -9.3193906e-08  1.2489206e-07  38.959218    
      3780   39.942882      50000          50000          50000         -7.8667298e-07 -2.3684904e-06 -1.1408486e-07  1.2255632e-07  39.942882    
      3800   40.715721      50000          50000          50000         -8.6632939e-07 -2.5800607e-06 -1.3222956e-07  1.1330204e-07  40.715721    
      3820   40.881226      50000          50000          50000         -9.4215463e-07 -2.7772031e-06 -1.4680672e-07  9.7545935e-08  40.881226    
      3840   40.19579       50000          50000          50000         -1.0140888e-06 -2.9612301e-06 -1.5709619e-07  7.6059842e-08  40.19579     
      3860   38.695708      50000          50000          50000         -1.0824775e-06 -3.1344408e-06 -1.6266493e-07  4.9673242e-08  38.695708    
      3880   36.741168      50000          50000          50000         -1.1479419e-06 -3.2993845e-06 -1.6353905e-07  1.9097867e-08  36.741168    
      3900   34.935488      50000          50000          50000         -1.2108863e-06 -3.4578652e-06 -1.6008489e-07 -1.4708862e-08  34.935488    
      3920   33.906115      50000          50000          50000         -1.2710903e-06 -3.6102896e-06 -1.5279543e-07 -5.0185829e-08  33.906115    
      3940   34.053204      50000          50000          50000         -1.3276681e-06 -3.7553238e-06 -1.4229654e-07 -8.5384033e-08  34.053204    
      3960   35.378006      50000          50000          50000         -1.3791605e-06 -3.8897715e-06 -1.2937925e-07 -1.1833087e-07  35.378006    
      3980   37.482661      50000          50000          50000         -1.4236506e-06 -4.0088817e-06 -1.1486583e-07 -1.4720415e-07  37.482661    
      4000   39.752715      50000          50000          50000         -1.4590717e-06 -4.1072749e-06 -9.9439738e-08 -1.705004e-07   39.752715    
      4020   41.608967      50000          50000          50000         -1.4837505e-06 -4.1800807e-06 -8.3741294e-08 -1.8742941e-07  41.608967    
      4040   42.707455      50000          50000          50000         -1.4966837e-06 -4.2233622e-06 -6.85781e-08   -1.9811092e-07  42.707455    
      4060   43.018865      50000          50000          50000         -1.4973684e-06 -4.2339995e-06 -5.4854859e-08 -2.0325091e-07  43.018865    
      4080   42.796603      50000          50000          50000         -1.485606e-06  -4.2096843e-06 -4.3362538e-08 -2.0377109e-07  42.796603    
      4100   42.453736      50000          50000          50000         -1.4614311e-06 -4.1489918e-06 -3.4653222e-08 -2.0064822e-07  42.453736    
      4120   42.388579      50000          50000          50000         -1.4250533e-06 -4.0513274e-06 -2.8990949e-08 -1.948415e-07   42.388579    
      4140   42.822037      50000          50000          50000         -1.3767761e-06 -3.9167704e-06 -2.6333678e-08 -1.8722418e-07  42.822037    
      4160   43.702802      50000          50000          50000         -1.316933e-06  -3.7459399e-06 -2.6340657e-08 -1.7851833e-07  43.702802    
      4180   44.716918      50000          50000          50000         -1.2458728e-06 -3.5399592e-06 -2.841146e-08  -1.6924786e-07  44.716918    
      4200   45.398277      50000          50000          50000         -1.1640042e-06 -3.300535e-06  -3.1757597e-08 -1.5971992e-07  45.398277    
      4220   45.284683      50000          50000          50000         -1.0719045e-06 -3.030177e-06  -3.5499366e-08 -1.5003725e-07  45.284683    
      4240   44.081973      50000          50000          50000         -9.7044509e-07 -2.7324246e-06 -3.8773487e-08 -1.4013714e-07  44.081973    
      4260   41.766669      50000          50000          50000         -8.6090089e-07 -2.412024e-06  -4.0833528e-08 -1.2984519e-07  41.766669    
      4280   38.598947      50000          50000          50000         -7.4498031e-07 -2.0748816e-06 -4.1129161e-08 -1.1893017e-07  38.598947    
      4300   35.039872      50000          50000          50000         -6.2474245e-07 -1.7277091e-06 -3.9363415e-08 -1.0715483e-07  35.039872    
      4320   31.602681      50000          50000          50000         -5.024358e-07  -1.377448e-06  -3.5532558e-08 -9.4326818e-08  31.602681    
      4340   28.694401      50000          50000          50000         -3.8031842e-07 -1.030688e-06  -2.9929902e-08 -8.0337363e-08  28.694401    
      4360   26.506481      50000          50000          50000         -2.603918e-07  -6.9304663e-07 -2.3023488e-08 -6.5105274e-08  26.506481    
      4380   24.99409       50000          50000          50000         -1.4377606e-07 -3.679268e-07  -1.5094099e-08 -4.8307273e-08  24.99409     
      4400   23.957724      50000          50000          50000         -3.0082006e-08 -5.4954914e-08 -6.0388197e-09 -2.9252285e-08  23.957724    
      4420   23.177923      50000          50000          50000          8.1864723e-08  2.4904781e-07  4.040514e-09  -7.4941492e-09  23.177923    
      4440   22.517552      50000          50000          50000          1.9274975e-07  5.4696737e-07  1.4517485e-08  1.6764386e-08  22.517552    
      4460   21.929106      50000          50000          50000          3.0257733e-07  8.4004676e-07  2.4694662e-08  4.2990559e-08  21.929106    
      4480   21.426171      50000          50000          50000          4.1094761e-07  1.1282285e-06  3.4079378e-08  7.0534997e-08  21.426171    
      4500   21.052698      50000          50000          50000          5.1719664e-07  1.4105631e-06  4.2388266e-08  9.8638573e-08  21.052698    
      4520   20.865608      50000          50000          50000          6.2045132e-07  1.6854073e-06  4.9515516e-08  1.264312e-07   20.865608    
      4540   20.930794      50000          50000          50000          7.1966785e-07  1.9505397e-06  5.5505047e-08  1.5295884e-07  20.930794    
      4560   21.322447      50000          50000          50000          8.1367771e-07  2.2032835e-06  6.0518652e-08  1.7723097e-07  21.322447    
      4580   22.112791      50000          50000          50000          9.0125313e-07  2.4406804e-06  6.4798401e-08  1.9828062e-07  22.112791    
      4600   23.344726      50000          50000          50000          9.811907e-07   2.6597142e-06  6.8627225e-08  2.1523071e-07  23.344726    
      4620   24.998058      50000          50000          50000          1.0524045e-06  2.8575645e-06  7.2291709e-08  2.2735728e-07  24.998058    
      4640   26.963284      50000          50000          50000          1.114e-06      3.0318081e-06  7.6050082e-08  2.3414192e-07  26.963284    
      4660   29.046368      50000          50000          50000          1.1653055e-06  3.1805092e-06  8.0102722e-08  2.3530445e-07  29.046368    
      4680   31.012301      50000          50000          50000          1.2058364e-06  3.3021463e-06  8.4554371e-08  2.308086e-07   31.012301    
      4700   32.65848       50000          50000          50000          1.235197e-06   3.3953931e-06  8.9356161e-08  2.2084191e-07  32.65848     
      4720   33.89088       50000          50000          50000          1.2529775e-06  3.45888e-06    9.42519e-08    2.0580073e-07  33.89088     
      4740   34.774793      50000          50000          50000          1.2587848e-06  3.4912005e-06  9.8815684e-08  1.8633813e-07  34.774793    
      4760   35.512166      50000          50000          50000          1.2524364e-06  3.4912367e-06  1.0261065e-07  1.6346173e-07  35.512166    
      4780   36.360665      50000          50000          50000          1.2341867e-06  3.4586813e-06  1.0532761e-07  1.3855128e-07  36.360665    
      4800   37.495704      50000          50000          50000          1.204796e-06   3.3943584e-06  1.067969e-07   1.1323254e-07  37.495704    
      4820   38.898248      50000          50000          50000          1.1654787e-06  3.300309e-06   1.0693921e-07  8.9187895e-08  38.898248    
      4840   40.316499      50000          50000          50000          1.1177765e-06  3.1796143e-06  1.0573325e-07  6.7981894e-08  40.316499    
      4860   41.330703      50000          50000          50000          1.0633714e-06  3.0359886e-06  1.0320788e-07  5.0917908e-08  41.330703    
      4880   41.505838      50000          50000          50000          1.0038673e-06  2.8732367e-06  9.9442586e-08  3.8922506e-08  41.505838    
      4900   40.568253      50000          50000          50000          9.4058169e-07  2.6947197e-06  9.4567088e-08  3.245831e-08   40.568253    
      4920   38.538468      50000          50000          50000          8.7441971e-07  2.5030306e-06  8.8758487e-08  3.1470077e-08  38.538468    
      4940   35.745493      50000          50000          50000          8.0585375e-07  2.2999558e-06  8.223526e-08   3.5370164e-08  35.745493    
      4960   32.719197      50000          50000          50000          7.3503657e-07  2.0867891e-06  7.5248174e-08  4.3072404e-08  32.719197    
      4980   29.997254      50000          50000          50000          6.6201664e-07  1.8648895e-06  6.8071717e-08  5.3088748e-08  29.997254    
      5000   27.915722      50000          50000          50000          5.8697517e-07  1.6361931e-06  6.1015257e-08  6.371714e-08   27.915722    
      5020   26.488328      50000          50000          50000          5.1037955e-07  1.4033224e-06  5.4472437e-08  7.3343756e-08  26.488328    
      5040   25.446695      50000          50000          50000          4.3287151e-07  1.1689533e-06  4.8925216e-08  8.0735974e-08  25.446695    
      5060   24.403841      50000          50000          50000          3.5480795e-07  9.3466983e-07  4.4736808e-08  8.5017223e-08  24.403841    
      5080   23.058678      50000          50000          50000          2.7593088e-07  7.005059e-07   4.189307e-08   8.5393656e-08  23.058678    
      5100   21.338279      50000          50000          50000          1.9555249e-07  4.655152e-07   4.0024856e-08  8.1117402e-08  21.338279    
      5120   19.43063       50000          50000          50000          1.1293203e-07  2.2847944e-07  3.8608102e-08  7.1708541e-08  19.43063     
      5140   17.715702      50000          50000          50000          2.7521626e-08 -1.167423e-08   3.7105303e-08  5.7133803e-08  17.715702    
      5160   16.607139      50000          50000          50000         -6.0917198e-08 -2.5562022e-07  3.5024368e-08  3.7844262e-08  16.607139    
      5180   16.390114      50000          50000          50000         -1.5222406e-07 -5.0335437e-07  3.1954959e-08  1.4727226e-08  16.390114    
      5200   17.111697      50000          50000          50000         -2.4580786e-07 -7.540386e-07   2.7603323e-08 -1.098831e-08   17.111697    
      5220   18.569806      50000          50000          50000         -3.4071023e-07 -1.0060875e-06  2.1817328e-08 -3.7860487e-08  18.569806    
      5240   20.413995      50000          50000          50000         -4.3574491e-07 -1.2574458e-06  1.4593619e-08 -6.4382495e-08  20.413995    
      5260   22.29069       50000          50000          50000         -5.2968767e-07 -1.5060042e-06  6.0675921e-09 -8.9126385e-08  22.29069     
      5280   23.981078      50000          50000          50000         -6.2143716e-07 -1.7499425e-06 -3.5073032e-09 -1.1086165e-07  23.981078    
      5300   25.469694      50000          50000          50000         -7.1010974e-07 -1.9879049e-06 -1.3785679e-08 -1.286386e-07   25.469694    
      5320   26.923224      50000          50000          50000         -7.9505604e-07 -2.2189653e-06 -2.4362469e-08 -1.4184036e-07  26.923224    
      5340   28.59644       50000          50000          50000         -8.7581384e-07 -2.4424062e-06 -3.4817816e-08 -1.5021756e-07  28.59644     
      5360   30.707865      50000          50000          50000         -9.5201694e-07 -2.6573573e-06 -4.4776196e-08 -1.5391738e-07  30.707865    
      5380   33.3333        50000          50000          50000         -1.0232693e-06 -2.8623701e-06 -5.3952294e-08 -1.5348552e-07  33.3333      
      5400   36.357467      50000          50000          50000         -1.089015e-06  -3.0551263e-06 -6.2133075e-08 -1.4978547e-07  36.357467    
      5420   39.508746      50000          50000          50000         -1.1485062e-06 -3.2325688e-06 -6.9110575e-08 -1.4383929e-07  39.508746    
      5440   42.467314      50000          50000          50000         -1.2009463e-06 -3.3914878e-06 -7.4661978e-08 -1.3668909e-07  42.467314    
      5460   44.990462      50000          50000          50000         -1.245705e-06  -3.529179e-06  -7.8607975e-08 -1.2932819e-07  44.990462    
      5480   46.986128      50000          50000          50000         -1.2824409e-06 -3.6437861e-06 -8.0881216e-08 -1.2265551e-07  46.986128    
      5500   48.501312      50000          50000          50000         -1.3110759e-06 -3.7342641e-06 -8.1551566e-08 -1.1741219e-07  48.501312    
      5520   49.642503      50000          50000          50000         -1.3316797e-06 -3.800118e-06  -8.0812406e-08 -1.141087e-07   49.642503    
      5540   50.47838       50000          50000          50000         -1.3443405e-06 -3.8411037e-06 -7.8950895e-08 -1.12967e-07    50.47838     
      5560   50.979411      50000          50000          50000         -1.3490799e-06 -3.8570295e-06 -7.6315771e-08 -1.1389451e-07  50.979411    
      5580   51.02669       50000          50000          50000         -1.3458366e-06 -3.847726e-06  -7.3287014e-08 -1.1649676e-07  51.02669     
      5600   50.483023      50000          50000          50000         -1.3345181e-06 -3.8131785e-06 -7.0247635e-08 -1.2012826e-07  50.483023    
      5620   49.289531      50000          50000          50000         -1.3150854e-06 -3.7537246e-06 -6.755639e-08  -1.2397523e-07  49.289531    
      5640   47.528399      50000          50000          50000         -1.2876319e-06 -3.6702148e-06 -6.5520969e-08 -1.2716004e-07  47.528399    
      5660   45.414148      50000          50000          50000         -1.2524184e-06 -3.5640267e-06 -6.4374248e-08 -1.2885443e-07  45.414148    
      5680   43.208506      50000          50000          50000         -1.2098552e-06 -3.4369184e-06 -6.4259358e-08 -1.2838787e-07  43.208506    
      5700   41.099237      50000          50000          50000         -1.1604553e-06 -3.2908042e-06 -6.5226935e-08 -1.2533478e-07  41.099237    
      5720   39.108928      50000          50000          50000         -1.1047908e-06 -3.1275809e-06 -6.723348e-08  -1.1955811e-07  39.108928    
      5740   37.090013      50000          50000          50000         -1.0434441e-06 -2.9490561e-06 -7.0102685e-08 -1.1117349e-07  37.090013    
      5760   34.817957      50000          50000          50000         -9.7688917e-07 -2.7568304e-06 -7.3423624e-08 -1.0041346e-07  34.817957    
      5780   32.137418      50000          50000          50000         -9.0535561e-07 -2.5520298e-06 -7.6528082e-08 -8.750896e-08   32.137418    
      5800   29.084202      50000          50000          50000         -8.2894932e-07 -2.3352968e-06 -7.8767093e-08 -7.2784105e-08  29.084202    
      5820   25.925193      50000          50000          50000         -7.4800843e-07 -2.1073963e-06 -7.9819784e-08 -5.6809198e-08  25.925193    
      5840   23.089959      50000          50000          50000         -6.6325468e-07 -1.8698057e-06 -7.9633083e-08 -4.0325287e-08  23.089959    
      5860   21.015437      50000          50000          50000         -5.7560956e-07 -1.6245834e-06 -7.8194151e-08 -2.4051153e-08  21.015437    
      5880   19.963066      50000          50000          50000         -4.8592241e-07 -1.3737743e-06 -7.5429e-08    -8.5639116e-09  19.963066    
      5900   19.903514      50000          50000          50000         -3.9477407e-07 -1.1188589e-06 -7.1209046e-08  5.7457493e-09  19.903514    
      5920   20.525664      50000          50000          50000         -3.0240727e-07 -8.6051729e-07 -6.5387355e-08  1.8682844e-08  20.525664    
      5940   21.366023      50000          50000          50000         -2.0878807e-07 -5.9874985e-07 -5.784443e-08   3.0230065e-08  21.366023    
      5960   22.003061      50000          50000          50000         -1.1375194e-07 -3.3322768e-07 -4.8535668e-08  4.0507516e-08  22.003061    
      5980   22.226362      50000          50000          50000         -1.716568e-08  -6.3692259e-08 -3.7526856e-08  4.9722076e-08  22.226362    
      6000   22.109722      50000          50000          50000          8.0963318e-08  2.0977768e-07 -2.5006418e-08  5.8118696e-08  22.109722    
      6020   21.959619      50000          50000          50000          1.8046513e-07  4.8672556e-07 -1.1271393e-08  6.5941236e-08  21.959619    
      6040   22.163486      50000          50000          50000          2.8106678e-07  7.6648454e-07  3.309509e-09   7.3406291e-08  22.163486    
      6060   23.002984      50000          50000          50000          3.8249138e-07  1.0484345e-06  1.8348527e-08  8.0691079e-08  23.002984    
      6080   24.519558      50000          50000          50000          4.8454492e-07  1.3322045e-06  3.3496275e-08  8.7933951e-08  24.519558    
      6100   26.477585      50000          50000          50000          5.871167e-07   1.6176216e-06  4.8486991e-08  9.5241499e-08  26.477585    
      6120   28.458993      50000          50000          50000          6.9007437e-07  1.9043868e-06  6.3147532e-08  1.0268874e-07  28.458993    
      6140   30.032509      50000          50000          50000          7.9301065e-07  2.191395e-06   7.7343879e-08  1.1029307e-07  30.032509    
      6160   30.935303      50000          50000          50000          8.9489095e-07  2.4758204e-06  9.0887052e-08  1.1796546e-07  30.935303    
      6180   31.187655      50000          50000          50000          9.938091e-07   2.7523979e-06  1.0352328e-07  1.2550614e-07  31.187655    
      6200   31.08838       50000          50000          50000          1.08714e-06    3.0136384e-06  1.1508265e-07  1.3269904e-07  31.08838     
      6220   31.076452      50000          50000          50000          1.1720356e-06  3.2510874e-06  1.2560867e-07  1.3941071e-07  31.076452    
      6240   31.51686       50000          50000          50000          1.2459188e-06  3.4568505e-06  1.3531449e-07  1.4559129e-07  31.51686     
      6260   32.525196      50000          50000          50000          1.3067912e-06  3.6247018e-06  1.4445559e-07  1.5121615e-07  32.525196    
      6280   33.90485       50000          50000          50000          1.3533368e-06  3.7505453e-06  1.5323072e-07  1.562345e-07   33.90485     
      6300   35.240454      50000          50000          50000          1.3848795e-06  3.8323741e-06  1.617263e-07   1.6053825e-07  35.240454    
      6320   36.083894      50000          50000          50000          1.4012268e-06  3.8698503e-06  1.6988714e-07  1.6394303e-07  36.083894    
      6340   36.149595      50000          50000          50000          1.4024866e-06  3.8637742e-06  1.7750657e-07  1.6617891e-07  36.149595    
      6360   35.431948      50000          50000          50000          1.3889358e-06  3.8156741e-06  1.8423809e-07  1.6689529e-07  35.431948    
      6380   34.198905      50000          50000          50000          1.3609877e-06  3.7276496e-06  1.8962973e-07  1.656839e-07   34.198905    
      6400   32.870946      50000          50000          50000          1.319248e-06   3.602447e-06   1.9317701e-07  1.6211988e-07  32.870946    
      6420   31.842049      50000          50000          50000          1.2646077e-06  3.4436215e-06  1.9438588e-07  1.5581572e-07  31.842049    
      6440   31.323341      50000          50000          50000          1.1983035e-06  3.255597e-06   1.9283428e-07  1.4647935e-07  31.323341    
      6460   31.272751      50000          50000          50000          1.1218847e-06  3.0434662e-06  1.8822133e-07  1.3396653e-07  31.272751    
      6480   31.439112      50000          50000          50000          1.0370838e-06  2.8125346e-06  1.8039697e-07  1.1831983e-07  31.439112    
      6500   31.488932      50000          50000          50000          9.4563015e-07  2.5677278e-06  1.6937131e-07  9.9791327e-08  31.488932    
      6520   31.153846      50000          50000          50000          8.4907804e-07  2.3130765e-06  1.5530827e-07  7.8849404e-08  31.153846    
      6540   30.332914      50000          50000          50000          7.4871739e-07  2.0514685e-06  1.3851131e-07  5.6172389e-08  30.332914    
      6560   29.111257      50000          50000          50000          6.4560255e-07  1.7847494e-06  1.1941954e-07  3.26387e-08    29.111257    
      6580   27.697014      50000          50000          50000          5.4067535e-07  1.5140519e-06  9.8643834e-08  9.3303404e-09  27.697014    
      6600   26.316099      50000          50000          50000          4.3483712e-07  1.2399966e-06  7.7004849e-08 -1.2490104e-08  26.316099    
      6620   25.124404      50000          50000          50000          3.2881999e-07  9.6255385e-07  5.5438297e-08 -3.1532182e-08  25.124404    
      6640   24.180996      50000          50000          50000          2.229954e-07   6.8090757e-07  3.478981e-08  -4.6711178e-08  24.180996    
      6660   23.479255      50000          50000          50000          1.1736294e-07  3.9368531e-07  1.5692249e-08 -5.7288735e-08  23.479255    
      6680   23.000448      50000          50000          50000          1.1692096e-08  9.9396642e-08 -1.426175e-09  -6.2894177e-08  23.000448    
      6700   22.753197      50000          50000          50000         -9.4342373e-08 -2.0321844e-07 -1.6296802e-08 -6.3511879e-08  22.753197    
      6720   22.784923      50000          50000          50000         -2.0107997e-07 -5.1497674e-07 -2.8786792e-08 -5.9476391e-08  22.784923    
      6740   23.148323      50000          50000          50000         -3.0884038e-07 -8.3614287e-07 -3.8902997e-08 -5.147527e-08   23.148323    
      6760   23.858334      50000          50000          50000         -4.1787367e-07 -1.1662263e-06 -4.682737e-08  -4.0567347e-08  23.858334    
      6780   24.854532      50000          50000          50000         -5.282471e-07  -1.5035465e-06 -5.297592e-08  -2.8218844e-08  24.854532    
      6800   25.983316      50000          50000          50000         -6.3963183e-07 -1.8446313e-06 -5.7990772e-08 -1.6273421e-08  25.983316    
      6820   27.039339      50000          50000          50000         -7.5109663e-07 -2.1839958e-06 -6.2563112e-08 -6.7309689e-09  27.039339    
      6840   27.852842      50000          50000          50000         -8.6120146e-07 -2.5149583e-06 -6.7220285e-08 -1.425793e-09   27.852842    
      6860   28.391194      50000          50000          50000         -9.6835574e-07 -2.8309773e-06 -7.2275653e-08 -1.8142905e-09  28.391194    
      6880   28.810934      50000          50000          50000         -1.0711114e-06 -3.1265752e-06 -7.7883066e-08 -8.8759821e-09  28.810934    
      6900   29.419252      50000          50000          50000         -1.1682339e-06 -3.3975928e-06 -8.4073092e-08 -2.3035815e-08  29.419252    
      6920   30.551808      50000          50000          50000         -1.2586263e-06 -3.641022e-06  -9.0761489e-08 -4.4095411e-08  30.551808    
      6940   32.418115      50000          50000          50000         -1.3412191e-06 -3.8546865e-06 -9.7763064e-08 -7.120773e-08   32.418115    
      6960   34.986949      50000          50000          50000         -1.4148997e-06 -4.0369531e-06 -1.0482543e-07 -1.029206e-07   34.986949    
      6980   37.96245       50000          50000          50000         -1.4785224e-06 -4.1865993e-06 -1.1167674e-07 -1.3729119e-07  37.96245     
      7000   40.88035       50000          50000          50000         -1.5309748e-06 -4.3028e-06    -1.1807221e-07 -1.720522e-07   40.88035     
      7020   43.266521      50000          50000          50000         -1.5712881e-06 -4.385238e-06  -1.2382556e-07 -2.0480061e-07  43.266521    
      7040   44.81045       50000          50000          50000         -1.5987247e-06 -4.4341678e-06 -1.2882229e-07 -2.3318404e-07  44.81045     
      7060   45.475803      50000          50000          50000         -1.6128299e-06 -4.4503867e-06 -1.3302852e-07 -2.5507434e-07  45.475803    
      7080   45.510051      50000          50000          50000         -1.6134465e-06 -4.4350921e-06 -1.3651416e-07 -2.6873315e-07  45.510051    
      7100   45.345241      50000          50000          50000         -1.6007083e-06 -4.3896811e-06 -1.3946887e-07 -2.7297494e-07  45.345241    
      7120   45.409233      50000          50000          50000         -1.5749842e-06 -4.315522e-06  -1.421246e-07  -2.6730596e-07  45.409233    
      7140   45.933259      50000          50000          50000         -1.5367166e-06 -4.2135736e-06 -1.4457798e-07 -2.5199814e-07  45.933259    
      7160   46.816315      50000          50000          50000         -1.486292e-06  -4.0841185e-06 -1.4667574e-07 -2.280818e-07   46.816315    
      7180   47.656624      50000          50000          50000         -1.4240255e-06 -3.9267688e-06 -1.4805093e-07 -1.9725692e-07  47.656624    
      7200   47.918325      50000          50000          50000         -1.350276e-06  -3.7408695e-06 -1.4822602e-07 -1.6173261e-07  47.918325    
      7220   47.156311      50000          50000          50000         -1.2656054e-06 -3.5260886e-06 -1.4670134e-07 -1.2402613e-07  47.156311    
      7240   45.196189      50000          50000          50000         -1.1709043e-06 -3.282948e-06  -1.4301304e-07 -8.6751937e-08  45.196189    
      7260   42.198317      50000          50000          50000         -1.0674318e-06 -3.0131115e-06 -1.3677115e-07 -5.2412651e-08  42.198317    
      7280   38.58786       50000          50000          50000         -9.5674239e-07 -2.7193487e-06 -1.276869e-07  -2.3191584e-08  38.58786     
      7300   34.894642      50000          50000          50000         -8.4050654e-07 -2.4051769e-06 -1.1559147e-07 -7.512523e-10   34.894642    
      7320   31.561581      50000          50000          50000         -7.2028839e-07 -2.0743577e-06 -1.0044599e-07  1.3938562e-08  31.561581    
      7340   28.821174      50000          50000          50000         -5.9734344e-07 -1.730379e-06  -8.2350177e-08  2.0698877e-08  28.821174    
      7360   26.670856      50000          50000          50000         -4.7254419e-07 -1.3761949e-06 -6.1563552e-08  2.0125891e-08  26.670856    
      7380   24.946341      50000          50000          50000         -3.4646133e-07 -1.0143203e-06 -3.853618e-08   1.3472475e-08  24.946341    
      7400   23.441858      50000          50000          50000         -2.1953785e-07 -6.4718288e-07 -1.39188e-08    2.4881385e-09  23.441858    
      7420   22.017423      50000          50000          50000         -9.2250462e-08 -2.7748112e-07  1.147026e-08  -1.0740525e-08  22.017423    
      7440   20.652065      50000          50000          50000          3.4801951e-08  9.1651815e-08  3.6711341e-08 -2.3957302e-08  20.652065    
      7460   19.432361      50000          50000          50000          1.6088484e-07  4.5671769e-07  6.0861892e-08 -3.4925053e-08  19.432361    
      7480   18.494194      50000          50000          50000          2.8516404e-07  8.1408118e-07  8.3034403e-08 -4.162347e-08   18.494194    
      7500   17.95269       50000          50000          50000          4.0675857e-07  1.1602382e-06  1.0246664e-07 -4.2429074e-08  17.95269     
      7520   17.85456       50000          50000          50000          5.2478087e-07  1.4920166e-06  1.18578e-07   -3.6251984e-08  17.85456     
      7540   18.170637      50000          50000          50000          6.3834837e-07  1.8066504e-06  1.310078e-07  -2.2613055e-08  18.170637    
      7560   18.824017      50000          50000          50000          7.4656981e-07  2.1017315e-06  1.3963464e-07 -1.6566788e-09  18.824017    
      7580   19.732722      50000          50000          50000          8.4852442e-07  2.3750996e-06  1.4457898e-07  2.589464e-08   19.732722    
      7600   20.84262       50000          50000          50000          9.4325557e-07  2.6247443e-06  1.4619153e-07  5.8830845e-08  20.84262     
      7620   22.135814      50000          50000          50000          1.0297915e-06  2.8487705e-06  1.4502953e-07  9.5574496e-08  22.135814    
      7640   23.615177      50000          50000          50000          1.1071894e-06  3.0454318e-06  1.4182181e-07  1.3431458e-07  23.615177    
      7660   25.278494      50000          50000          50000          1.1745796e-06  3.2131835e-06  1.3742046e-07  1.7313466e-07  25.278494    
      7680   27.099105      50000          50000          50000          1.2311673e-06  3.3506682e-06  1.3272935e-07  2.1010445e-07  27.099105    
      7700   29.022441      50000          50000          50000          1.2761518e-06  3.4565667e-06  1.2859159e-07  2.4329726e-07  29.022441    
      7720   30.974776      50000          50000          50000          1.30861e-06    3.5294146e-06  1.2565502e-07  2.7076026e-07  30.974776    
      7740   32.874006      50000          50000          50000          1.3275632e-06  3.567734e-06   1.2433266e-07  2.906229e-07   32.874006    
      7760   34.638089      50000          50000          50000          1.3323171e-06  3.5705866e-06  1.2491321e-07  3.0145143e-07  34.638089    
      7780   36.191286      50000          50000          50000          1.3227252e-06  3.5379989e-06  1.2761729e-07  3.0255944e-07  36.191286    
      7800   37.46523       50000          50000          50000          1.2991295e-06  3.4708824e-06  1.3248183e-07  2.9402443e-07  37.46523     
      7820   38.395389      50000          50000          50000          1.2621695e-06  3.3707258e-06  1.3923122e-07  2.7655149e-07  38.395389    
      7840   38.922416      50000          50000          50000          1.2126464e-06  3.2393457e-06  1.4724663e-07  2.51347e-07    38.922416    
      7860   39.00779       50000          50000          50000          1.1514431e-06  3.0787112e-06  1.5560834e-07  2.2000959e-07  39.00779     
      7880   38.662183      50000          50000          50000          1.0794649e-06  2.8908083e-06  1.6317516e-07  1.8441116e-07  38.662183    
      7900   37.971431      50000          50000          50000          9.976009e-07   2.6775506e-06  1.6868948e-07  1.4656262e-07  37.971431    
      7920   37.098566      50000          50000          50000          9.0671726e-07  2.4407778e-06  1.7090302e-07  1.0847098e-07  37.098566    
      7940   36.247026      50000          50000          50000          8.076912e-07   2.1823637e-06  1.687134e-07   7.1996523e-08  36.247026    
      7960   35.589193      50000          50000          50000          7.014771e-07   1.9044163e-06  1.6129491e-07  3.8720146e-08  35.589193    
      7980   35.187164      50000          50000          50000          5.8917847e-07  1.6094989e-06  1.4820377e-07  9.8327318e-09  35.187164    
      8000   34.945655      50000          50000          50000          4.7209159e-07  1.3007743e-06  1.2944098e-07 -1.394047e-08   34.945655    
      8020   34.629716      50000          50000          50000          3.51694e-07    9.8198592e-07  1.054654e-07  -3.2369312e-08  34.629716    
      8040   33.952278      50000          50000          50000          2.2957097e-07  6.5725016e-07  7.7159005e-08 -4.5696274e-08  33.952278    
      8060   32.700759      50000          50000          50000          1.0729743e-07  3.307063e-07   4.5750469e-08 -5.4564476e-08  32.700759    
      8080   30.847416      50000          50000          50000         -1.3686364e-08  6.1467492e-09  1.2702767e-08 -5.9908608e-08  30.847416    
      8100   28.590196      50000          50000          50000         -1.321568e-07  -3.1321788e-07 -2.0423806e-08 -6.2828704e-08  28.590196    
      8120   26.300495      50000          50000          50000         -2.4710629e-07 -6.2474522e-07 -5.2108161e-08 -6.4465489e-08  26.300495    
      8140   24.395428      50000          50000          50000         -3.5765759e-07 -9.2610902e-07 -8.0976443e-08 -6.5887305e-08  24.395428    
      8160   23.184145      50000          50000          50000         -4.6293822e-07 -1.2149483e-06 -1.0587343e-07 -6.7992928e-08  23.184145    
      8180   22.748985      50000          50000          50000         -5.6198329e-07 -1.4886031e-06 -1.2591086e-07 -7.1435894e-08  22.748985    
      8200   22.910764      50000          50000          50000         -6.537174e-07  -1.7440673e-06 -1.4050743e-07 -7.6577507e-08  22.910764    
      8220   23.296673      50000          50000          50000         -7.370264e-07  -1.9781838e-06 -1.4942287e-07 -8.3472514e-08  23.296673    
      8240   23.489121      50000          50000          50000         -8.1089216e-07 -2.1880116e-06 -1.5277941e-07 -9.1885508e-08  23.489121    
      8260   23.20037       50000          50000          50000         -8.7454159e-07 -2.3712308e-06 -1.5106237e-07 -1.0133161e-07  23.20037     
      8280   22.40463       50000          50000          50000         -9.275585e-07  -2.5264482e-06 -1.4509413e-07 -1.1113316e-07  22.40463     
      8300   21.372056      50000          50000          50000         -9.6991912e-07 -2.6532954e-06 -1.359775e-07  -1.204845e-07   21.372056    
      8320   20.583884      50000          50000          50000         -1.0019347e-06 -2.7522818e-06 -1.2500429e-07 -1.2851796e-07  20.583884    
      8340   20.554493      50000          50000          50000         -1.0241125e-06 -2.8244443e-06 -1.1352833e-07 -1.3436496e-07  20.554493    
      8360   21.628733      50000          50000          50000         -1.0369771e-06 -2.8709103e-06 -1.0281259e-07 -1.372084e-07   21.628733    
      8380   23.840988      50000          50000          50000         -1.0409252e-06 -2.8925513e-06 -9.3889841e-08 -1.3633464e-07  23.840988    
      8400   26.897793      50000          50000          50000         -1.0362298e-06 -2.889917e-06  -8.7532816e-08 -1.3123956e-07  26.897793    
      8420   30.28175       50000          50000          50000         -1.023283e-06  -2.8635761e-06 -8.4409029e-08 -1.2186386e-07  30.28175     
      8440   33.425939      50000          50000          50000         -1.0028368e-06 -2.8146198e-06 -8.5125571e-08 -1.0876506e-07  33.425939    
      8460   35.908234      50000          50000          50000         -9.7587259e-07 -2.7449173e-06 -8.9813457e-08 -9.2887013e-08  35.908234    
      8480   37.616284      50000          50000          50000         -9.4338393e-07 -2.6571096e-06 -9.7796577e-08 -7.5245636e-08  37.616284    
      8500   38.763328      50000          50000          50000         -9.0635035e-07 -2.5544445e-06 -1.077412e-07  -5.686532e-08   38.763328    
      8520   39.747774      50000          50000          50000         -8.6565754e-07 -2.4402678e-06 -1.1793945e-07 -3.8765378e-08  39.747774    
      8540   40.934706      50000          50000          50000         -8.2193617e-07 -2.3173718e-06 -1.2654021e-07 -2.1896526e-08  40.934706    
      8560   42.478217      50000          50000          50000         -7.7548826e-07 -2.1875789e-06 -1.317751e-07  -7.1107951e-09  42.478217    
      8580   44.260635      50000          50000          50000         -7.2636864e-07 -2.0517744e-06 -1.3215848e-07  4.8269973e-09  44.260635    
      8600   45.955924      50000          50000          50000         -6.7451786e-07 -1.9102527e-06 -1.265833e-07   1.3282424e-08  45.955924    
      8620   47.176336      50000          50000          50000         -6.1988491e-07 -1.7631448e-06 -1.1435683e-07  1.7846892e-08  47.176336    
      8640   47.635557      50000          50000          50000         -5.6255308e-07 -1.6108045e-06 -9.5256851e-08  1.840206e-08   47.635557    
      8660   47.257194      50000          50000          50000         -5.0284014e-07 -1.4540561e-06 -6.9598237e-08  1.5133919e-08  47.257194    
      8680   46.184184      50000          50000          50000         -4.4132773e-07 -1.2942284e-06 -3.8271993e-08  8.5171716e-09  46.184184    
      8700   44.691688      50000          50000          50000         -3.7881031e-07 -1.1329767e-06 -2.7359204e-09 -7.182732e-10   44.691688    
      8720   43.049727      50000          50000          50000         -3.1619046e-07 -9.7198643e-07  3.5052932e-08 -1.163788e-08   43.049727    
      8740   41.403432      50000          50000          50000         -2.5436864e-07 -8.1270148e-07  7.2767838e-08 -2.3172269e-08  41.403432    
      8760   39.728754      50000          50000          50000         -1.9417473e-07 -6.5621718e-07  1.0789831e-07 -3.4205329e-08  39.728754    
      8780   37.883156      50000          50000          50000         -1.3636498e-07 -5.0339698e-07  1.3797557e-07 -4.3673518e-08  37.883156    
      8800   35.721716      50000          50000          50000         -8.1668507e-08 -3.5515763e-07  1.6081495e-07 -5.0662844e-08  35.721716    
      8820   33.214018      50000          50000          50000         -3.0830235e-08 -2.1276245e-07  1.7475673e-07 -5.4484985e-08  33.214018    
      8840   30.495573      50000          50000          50000          1.542232e-08  -7.7919634e-08  1.7889622e-07 -5.4709622e-08  30.495573    
      8860   27.822517      50000          50000          50000          5.6536739e-08  4.7464368e-08  1.7328073e-07 -5.1134878e-08  27.822517    
      8880   25.454096      50000          50000          50000          9.2351284e-08  1.6180865e-07  1.5897041e-07 -4.372521e-08   25.454096    
      8900   23.540932      50000          50000          50000          1.2315574e-07  2.6427847e-07  1.3780436e-07 -3.2615597e-08  23.540932    
      8920   22.070065      50000          50000          50000          1.4947744e-07  3.5467584e-07  1.119601e-07  -1.8203621e-08  22.070065    
      8940   20.900926      50000          50000          50000          1.7184609e-07  4.3306213e-07  8.3665479e-08 -1.1893366e-09  20.900926    
      8960   19.849815      50000          50000          50000          1.9069986e-07  4.9946591e-07  5.5142261e-08  1.7491408e-08  19.849815    
      8980   18.79306       50000          50000          50000          2.0636577e-07  5.5377215e-07  2.8564686e-08  3.6760491e-08  18.79306     
      9000   17.745881      50000          50000          50000          2.1903993e-07  5.9572129e-07  5.9266411e-09  5.5471846e-08  17.745881    
      9020   16.877077      50000          50000          50000          2.2878764e-07  6.2502438e-07 -1.1139115e-08  7.2477663e-08  16.877077    
      9040   16.444373      50000          50000          50000          2.3559605e-07  6.4161526e-07 -2.1529007e-08  8.6701888e-08  16.444373    
      9060   16.673989      50000          50000          50000          2.3947285e-07  6.4598602e-07 -2.4789068e-08  9.7221593e-08  16.673989    
      9080   17.63956       50000          50000          50000          2.4054983e-07  6.394725e-07  -2.1168594e-08  1.0334559e-07  17.63956     
      9100   19.201403      50000          50000          50000          2.3914045e-07  6.2434222e-07 -1.1596722e-08  1.0467585e-07  19.201403    
      9120   21.041763      50000          50000          50000          2.3572152e-07  6.036061e-07   2.4177228e-09  1.0114073e-07  21.041763    
      9140   22.786843      50000          50000          50000          2.3084644e-07  5.8059211e-07  1.8949988e-08  9.299723e-08   22.786843    
      9160   24.164968      50000          50000          50000          2.2502879e-07  5.5841761e-07  3.5862293e-08  8.080646e-08   24.164968    
      9180   25.132145      50000          50000          50000          2.186424e-07   5.3952779e-07  5.1011949e-08  6.5387458e-08  25.132145    
      9200   25.908119      50000          50000          50000          2.1186692e-07  5.2542583e-07  6.2424482e-08  4.7750432e-08  25.908119    
      9220   26.899379      50000          50000          50000          2.0469066e-07  5.1664236e-07  6.8411665e-08  2.9017938e-08  26.899379    
      9240   28.525175      50000          50000          50000          1.970041e-07   5.1294391e-07  6.7695388e-08  1.0373001e-08  28.525175    
      9260   31.002684      50000          50000          50000          1.8881984e-07  5.1375205e-07  5.9640521e-08 -6.9330387e-09  31.002684    
      9280   34.186776      50000          50000          50000          1.8050483e-07  5.1859023e-07  4.4512228e-08 -2.1587974e-08  34.186776    
      9300   37.56936       50000          50000          50000          1.7281102e-07  5.2726328e-07  2.3514845e-08 -3.234508e-08   37.56936     
      9320   40.445934      50000          50000          50000          1.6664906e-07  5.3960633e-07 -1.4341597e-09 -3.8224992e-08  40.445934    
      9340   42.192199      50000          50000          50000          1.6278354e-07  5.5506426e-07 -2.8033686e-08 -3.8679938e-08  42.192199    
      9360   42.510341      50000          50000          50000          1.6158872e-07  5.7233524e-07 -5.389769e-08  -3.3671386e-08  42.510341    
      9380   41.546676      50000          50000          50000          1.6294993e-07  5.8930406e-07 -7.6784728e-08 -2.3669533e-08  41.546676    
      9400   39.833601      50000          50000          50000          1.6632368e-07  6.0334077e-07 -9.4773993e-08 -9.5957376e-09  39.833601    
      9420   38.080625      50000          50000          50000          1.7092696e-07  6.1190924e-07 -1.0640696e-07  7.2785994e-09  38.080625    
      9440   36.893136      50000          50000          50000          1.7598193e-07  6.1327343e-07 -1.107962e-07   2.5468571e-08  36.893136    
      9460   36.5494        50000          50000          50000          1.8094075e-07  6.0707761e-07 -1.076898e-07   4.3434454e-08  36.5494      
      9480   36.910991      50000          50000          50000          1.8558328e-07  5.9448957e-07 -9.7479198e-08  5.9739466e-08  36.910991    
      9500   37.51338       50000          50000          50000          1.8997014e-07  5.7787701e-07 -8.1146085e-08  7.3179506e-08  37.51338     
      9520   37.783407      50000          50000          50000          1.9428065e-07  5.6013198e-07 -6.0156079e-08  8.2866034e-08  37.783407    
      9540   37.278603      50000          50000          50000          1.9861345e-07  5.4389402e-07 -3.6314562e-08  8.82609e-08    37.278603    
      9560   35.863014      50000          50000          50000          2.0285215e-07  5.3097982e-07 -1.1600689e-08  8.9177327e-08  35.863014    
[...]
     97600   23.341824      50000          50000          50000         -4.2148167e-08  1.6067352e-09 -1.8178601e-07  5.3734771e-08  23.341824    
     97620   22.978893      50000          50000          50000         -1.0561001e-07 -1.3797472e-07 -2.0832062e-07  2.9465307e-08  22.978893    
     97640   22.491246      50000          50000          50000         -1.669956e-07  -2.7521937e-07 -2.2400972e-07 -1.7577244e-09  22.491246    
     97660   21.954252      50000          50000          50000         -2.2389878e-07 -4.0577377e-07 -2.2636146e-07 -3.9561117e-08  21.954252    
     97680   21.463471      50000          50000          50000         -2.7387443e-07 -5.2538578e-07 -2.1361576e-07 -8.2621755e-08  21.463471    
     97700   21.117793      50000          50000          50000         -3.1459242e-07 -6.3013439e-07 -1.8499075e-07 -1.2865214e-07  21.117793    
     97720   20.99761       50000          50000          50000         -3.4399807e-07 -7.1657415e-07 -1.408677e-07  -1.7455235e-07  20.99761     
     97740   21.143887      50000          50000          50000         -3.6046728e-07 -7.8183779e-07 -8.2869233e-08 -2.1669481e-07  21.143887    
     97760   21.546124      50000          50000          50000         -3.6294465e-07 -8.2375359e-07 -1.38013e-08   -2.5127907e-07  21.546124    
     97780   22.145046      50000          50000          50000         -3.5105168e-07 -8.4100953e-07  6.2544092e-08 -2.746896e-07   22.145046    
     97800   22.849962      50000          50000          50000         -3.2515033e-07 -8.3334504e-07  1.4170097e-07 -2.8380693e-07  22.849962    
     97820   23.564194      50000          50000          50000         -2.8634696e-07 -8.017013e-07   2.1891003e-07 -2.7624959e-07  23.564194    
     97840   24.208276      50000          50000          50000         -2.3642946e-07 -7.4824443e-07  2.8950399e-07 -2.5054794e-07  24.208276    
     97860   24.733466      50000          50000          50000         -1.777563e-07  -6.7621706e-07  3.4921883e-07 -2.0627067e-07  24.733466    
     97880   25.118279      50000          50000          50000         -1.1316605e-07 -5.8970237e-07  3.9435991e-07 -1.441557e-07   25.118279    
     97900   25.354262      50000          50000          50000         -4.5983923e-08 -4.9345285e-07  4.2183124e-07 -6.6330158e-08  25.354262    
     97920   25.423669      50000          50000          50000          1.9912027e-08 -3.9282443e-07  4.2919668e-07  2.336383e-08   25.423669    
     97940   25.283102      50000          50000          50000          8.0228404e-08 -2.934857e-07   4.1498833e-07  1.1918259e-07  25.283102    
     97960   24.872878      50000          50000          50000          1.3073009e-07 -2.0074226e-07  3.7914719e-07  2.1378535e-07  24.872878    
     97980   24.162054      50000          50000          50000          1.6776146e-07 -1.1896399e-07  3.2323033e-07  2.9901804e-07  24.162054    
     98000   23.207673      50000          50000          50000          1.8857683e-07 -5.1470347e-08  2.5030653e-07  3.668943e-07   23.207673    
     98020   22.185053      50000          50000          50000          1.9153745e-07 -6.6579825e-10  1.6469504e-07  4.105831e-07   22.185053    
     98040   21.356107      50000          50000          50000          1.7627018e-07  3.1892695e-08  7.1623381e-08  4.2529446e-07  21.356107    
     98060   20.977522      50000          50000          50000          1.4378217e-07  4.5635712e-08 -2.3213466e-08  4.0892427e-07  20.977522    
     98080   21.190266      50000          50000          50000          9.6426841e-08  4.1215059e-08 -1.1420935e-07  3.6227481e-07  21.190266    
     98100   21.950385      50000          50000          50000          3.7592558e-08  2.0494267e-08 -1.9644396e-07  2.8872737e-07  21.950385    
     98120   23.037384      50000          50000          50000         -2.8813188e-08 -1.3874505e-08 -2.6610825e-07  1.9354319e-07  23.037384    
     98140   24.128656      50000          50000          50000         -9.877137e-08  -5.8949678e-08 -3.2060375e-07  8.3239314e-08  24.128656    
     98160   24.904737      50000          50000          50000         -1.6832627e-07 -1.1177098e-07 -3.5844244e-07 -3.476539e-08   24.904737    
     98180   25.152929      50000          50000          50000         -2.3370255e-07 -1.6953869e-07 -3.7914701e-07 -1.5242194e-07  25.152929    
     98200   24.837712      50000          50000          50000         -2.9147737e-07 -2.298354e-07  -3.8318335e-07 -2.6141337e-07  24.837712    
     98220   24.109875      50000          50000          50000         -3.3876505e-07 -2.9079759e-07 -3.718712e-07  -3.5362636e-07  24.109875    
     98240   23.245241      50000          50000          50000         -3.7335371e-07 -3.5110488e-07 -3.4724524e-07 -4.2171102e-07  23.245241    
     98260   22.532847      50000          50000          50000         -3.9377916e-07 -4.0975377e-07 -3.1187003e-07 -4.597137e-07   22.532847    
     98280   22.157374      50000          50000          50000         -3.9935284e-07 -4.6569311e-07 -2.686224e-07  -4.6374302e-07  22.157374    
     98300   22.128642      50000          50000          50000         -3.9016924e-07 -5.1747201e-07 -2.2045954e-07 -4.3257616e-07  22.128642    
     98320   22.294302      50000          50000          50000         -3.6710842e-07 -5.6305906e-07 -1.7019711e-07 -3.680691e-07   22.294302    
     98340   22.434294      50000          50000          50000         -3.3182942e-07 -5.9992678e-07 -1.2032322e-07 -2.7523825e-07  22.434294    
     98360   22.393725      50000          50000          50000         -2.8672822e-07 -6.2538091e-07 -7.2866791e-08 -1.6193696e-07  22.393725    
     98380   22.186662      50000          50000          50000         -2.3482305e-07 -6.370093e-07  -2.9326239e-08 -3.8133604e-08  22.186662    
     98400   22.01157       50000          50000          50000         -1.7953901e-07 -6.3308212e-07  9.3451203e-09  8.511996e-08   22.01157     
     98420   22.158773      50000          50000          50000         -1.2439782e-07 -6.1277271e-07  4.2703157e-08  1.968761e-07   22.158773    
     98440   22.844444      50000          50000          50000         -7.266316e-08  -5.7616807e-07  7.0731313e-08  2.8744728e-07  22.844444    
     98460   24.048576      50000          50000          50000         -2.7013668e-08 -5.2413494e-07  9.372508e-08   3.4936886e-07  24.048576    
     98480   25.44463       50000          50000          50000          1.0725095e-08 -4.5810901e-07  1.1218054e-07  3.7810375e-07  25.44463     
     98500   26.478836      50000          50000          50000          3.9773142e-08 -3.7984109e-07  1.2672058e-07  3.7243994e-07  26.478836    
     98520   26.586045      50000          50000          50000          6.0363895e-08 -2.9128075e-07  1.3799523e-07  3.343772e-07   26.586045    
     98540   25.44259       50000          50000          50000          7.3396214e-08 -1.947727e-07   1.4649533e-07  2.6846601e-07  25.44259     
     98560   23.13394       50000          50000          50000          8.0028855e-08 -9.3344302e-08  1.5238642e-07  1.8104445e-07  23.13394     
     98580   20.169579      50000          50000          50000          8.1484237e-08  9.2502663e-09  1.5547332e-07  7.9729119e-08  20.169579    
     98600   17.338458      50000          50000          50000          7.9055837e-08  1.0882981e-07  1.5527764e-07 -2.6939939e-08  17.338458    
     98620   15.44794       50000          50000          50000          7.4208765e-08  2.0136933e-07  1.5117951e-07 -1.2992255e-07  15.44794     
     98640   15.036228      50000          50000          50000          6.8679517e-08  2.8371452e-07  1.4259572e-07 -2.2027169e-07  15.036228    
     98660   16.171347      50000          50000          50000          6.4493903e-08  3.5419352e-07  1.2916471e-07 -2.8987652e-07  16.171347    
     98680   18.426371      50000          50000          50000          6.3850663e-08  4.1289618e-07  1.1089915e-07 -3.3224334e-07  18.426371    
     98700   21.044669      50000          50000          50000          6.8869776e-08  4.6149407e-07  8.8270746e-08 -3.4315548e-07  21.044669    
     98720   23.233943      50000          50000          50000          8.1264067e-08  5.0267016e-07  6.2215095e-08 -3.2109306e-07  23.233943    
     98740   24.468855      50000          50000          50000          1.01987e-07    5.3931593e-07  3.4076526e-08 -2.6743145e-07  24.468855    
     98760   24.68862       50000          50000          50000          1.3091565e-07  5.7374717e-07  5.5494221e-09 -1.8654964e-07  24.68862     
     98780   24.309135      50000          50000          50000          1.6673261e-07  6.0730989e-07 -2.1349574e-08 -8.5762493e-08  24.309135    
     98800   24.018846      50000          50000          50000          2.0718966e-07  6.405903e-07  -4.4384822e-08  2.5363512e-08  24.018846    
     98820   24.423873      50000          50000          50000          2.4961483e-07  6.738699e-07  -6.139327e-08   1.3636786e-07  24.423873    
     98840   25.716895      50000          50000          50000          2.9136083e-07  7.0737107e-07 -7.0634307e-08  2.3734571e-07  25.716895    
     98860   27.544912      50000          50000          50000          3.3006385e-07  7.4118509e-07 -7.1020432e-08  3.2002691e-07  27.544912    
     98880   29.142261      50000          50000          50000          3.6369756e-07  7.7490629e-07 -6.22069e-08    3.7839329e-07  29.142261    
     98900   29.665943      50000          50000          50000          3.9046116e-07  8.0707183e-07 -4.4593472e-08  4.0890513e-07  29.665943    
     98920   28.582893      50000          50000          50000          4.0860654e-07  8.3463696e-07 -1.9283718e-08  4.1046637e-07  28.582893    
     98940   25.941488      50000          50000          50000          4.16339e-07    8.5277246e-07  1.197649e-08   3.8426806e-07  25.941488    
     98960   22.408114      50000          50000          50000          4.1189665e-07  8.5520825e-07  4.6884883e-08  3.3359683e-07  22.408114    
     98980   19.040955      50000          50000          50000          3.9383827e-07  8.3519392e-07  8.2716404e-08  2.6360447e-07  19.040955    
     99000   16.881916      50000          50000          50000          3.614631e-07   7.869054e-07   1.1652938e-07  1.8095453e-07  16.881916    
     99020   16.538961      50000          50000          50000          3.1517256e-07  7.0683774e-07  1.4544086e-07  9.3239086e-08  16.538961    
     99040   17.9526        50000          50000          50000          2.5653382e-07  5.945559e-07   1.6690752e-07  8.138028e-09   17.9526      
     99060   20.452292      50000          50000          50000          1.8794421e-07  4.5244486e-07  1.7890484e-07 -6.751708e-08   20.452292    
     99080   23.052269      50000          50000          50000          1.1211101e-07  2.8483073e-07  1.7996762e-07 -1.2846532e-07  23.052269    
     99100   24.833318      50000          50000          50000          3.1672412e-08  9.7195085e-08  1.6918664e-07 -1.7136449e-07  24.833318    
     99120   25.271326      50000          50000          50000         -5.095444e-08  -1.0423618e-07  1.4625206e-07 -1.948792e-07   25.271326    
     99140   24.398814      50000          50000          50000         -1.3360707e-07 -3.1271147e-07  1.1153357e-07 -1.9964329e-07  24.398814    
     99160   22.767274      50000          50000          50000         -2.1431297e-07 -5.2100066e-07  6.6156952e-08 -1.8809519e-07  22.767274    
     99180   21.203416      50000          50000          50000         -2.9115172e-07 -7.2135396e-07  1.2035058e-08 -1.6413626e-07  21.203416    
     99200   20.452512      50000          50000          50000         -3.6208701e-07 -9.0547014e-07 -4.8182848e-08 -1.3260803e-07  20.452512    
     99220   20.855179      50000          50000          50000         -4.2486e-07    -1.0646561e-06 -1.1126206e-07 -9.8661804e-08  20.855179    
     99240   22.202339      50000          50000          50000         -4.7702409e-07 -1.1903148e-06 -1.7361474e-07 -6.7142776e-08  22.202339    
     99260   23.835109      50000          50000          50000         -5.1614295e-07 -1.2747639e-06 -2.3156878e-07 -4.20962e-08    23.835109    
     99280   24.941933      50000          50000          50000         -5.4010244e-07 -1.312237e-06  -2.8162871e-07 -2.6441657e-08  24.941933    
     99300   24.925413      50000          50000          50000         -5.4743328e-07 -1.2998022e-06 -3.2070117e-07 -2.179651e-08   24.925413    
     99320   23.667316      50000          50000          50000         -5.3756501e-07 -1.2380153e-06 -3.4628265e-07 -2.8397026e-08  23.667316    
     99340   21.598686      50000          50000          50000         -5.109223e-07  -1.1310704e-06 -3.5661937e-07 -4.5077125e-08  21.598686    
     99360   19.52843       50000          50000          50000         -4.6885186e-07 -9.8640083e-07 -3.5084322e-07 -6.9311545e-08  19.52843     
     99380   18.302486      50000          50000          50000         -4.1339241e-07 -8.1373311e-07 -3.2906312e-07 -9.7380987e-08  18.302486    
     99400   18.437757      50000          50000          50000         -3.4696967e-07 -6.2380217e-07 -2.9237731e-07 -1.2472952e-07  18.437757    
     99420   19.897084      50000          50000          50000         -2.7213693e-07 -4.27093e-07   -2.4278432e-07 -1.4653345e-07  19.897084    
     99440   22.109974      50000          50000          50000         -1.9145344e-07 -2.3295106e-07 -1.8300062e-07 -1.5840865e-07  22.109974    
     99460   24.225279      50000          50000          50000         -1.0750534e-07 -4.9192788e-08 -1.1621764e-07 -1.5710558e-07  24.225279    
     99480   25.471939      50000          50000          50000         -2.2989194e-08  1.1789551e-07 -4.5841542e-08 -1.4102154e-07  25.471939    
     99500   25.461465      50000          50000          50000          5.9239643e-08  2.6339107e-07  2.4737785e-08 -1.1040993e-07  25.461465    
     99520   24.307944      50000          50000          50000          1.3620927e-07  3.8358655e-07  9.2308091e-08 -6.7266835e-08  24.307944    
     99540   22.536333      50000          50000          50000          2.0497264e-07  4.7596665e-07  1.5392282e-07 -1.4971541e-08  22.536333    
     99560   20.840482      50000          50000          50000          2.6283244e-07  5.3933202e-07  2.0695512e-07  4.2210181e-08  20.840482    
     99580   19.80072       50000          50000          50000          3.0760605e-07  5.7398708e-07  2.4916121e-07  9.9669865e-08  19.80072     
     99600   19.67367       50000          50000          50000          3.3785398e-07  5.8182491e-07  2.7876431e-07  1.5297272e-07  19.67367     
     99620   20.331472      50000          50000          50000          3.5298687e-07  5.6615069e-07  2.9453724e-07  1.9827267e-07  20.331472    
     99640   21.364548      50000          50000          50000          3.531911e-07   5.3117882e-07  2.9583927e-07  2.3255522e-07  21.364548    
     99660   22.285351      50000          50000          50000          3.3914166e-07  4.812281e-07   2.8255429e-07  2.536426e-07   22.285351    
     99680   22.751079      50000          50000          50000          3.1159284e-07  4.1986246e-07  2.5496122e-07  2.5995485e-07  22.751079    
     99700   22.695741      50000          50000          50000          2.7124593e-07  3.495444e-07   2.1384077e-07  2.5035261e-07  22.695741    
     99720   22.336257      50000          50000          50000          2.1937208e-07  2.7244615e-07  1.6105696e-07  2.2461314e-07  22.336257    
     99740   22.040633      50000          50000          50000          1.5833837e-07  1.9111573e-07  9.9857332e-08  1.8404206e-07  22.040633    
     99760   22.126613      50000          50000          50000          9.1314235e-08  1.0806529e-07  3.4444049e-08  1.3143336e-07  22.126613    
     99780   22.697762      50000          50000          50000          2.1848873e-08  2.5376068e-08 -3.0560734e-08  7.0731286e-08  22.697762    
     99800   23.591885      50000          50000          50000         -4.638854e-08  -5.533769e-08  -9.0506496e-08  6.6785665e-09  23.591885    
     99820   24.460303      50000          50000          50000         -1.0987356e-07 -1.3292273e-07 -1.410678e-07  -5.5630146e-08  24.460303    
     99840   24.936443      50000          50000          50000         -1.6553963e-07 -2.0672236e-07 -1.7858891e-07 -1.1130762e-07  24.936443    
     99860   24.810663      50000          50000          50000         -2.1106481e-07 -2.7655923e-07 -2.0038429e-07 -1.562509e-07   24.810663    
     99880   24.126882      50000          50000          50000         -2.4504936e-07 -3.4257892e-07 -2.0495942e-07 -1.8760973e-07  24.126882    
     99900   23.163812      50000          50000          50000         -2.6703688e-07 -4.0493035e-07 -1.9213094e-07 -2.0404934e-07  23.163812    
     99920   22.300047      50000          50000          50000         -2.7740915e-07 -4.6342231e-07 -1.6304011e-07 -2.0576504e-07  22.300047    
     99940   21.846838      50000          50000          50000         -2.771855e-07  -5.1723361e-07 -1.2005694e-07 -1.9426597e-07  21.846838    
     99960   21.913662      50000          50000          50000         -2.6781181e-07 -5.6484538e-07 -6.6591041e-08 -1.7199901e-07  21.913662    
     99980   22.364624      50000          50000          50000         -2.5099529e-07 -6.042313e-07  -6.8374753e-09 -1.419171e-07   22.364624    
    100000   22.89162       50000          50000          50000         -2.2859085e-07 -6.3319276e-07  5.451185e-08  -1.0709165e-07  22.89162     
    100020   23.148346      50000          50000          50000         -2.0254701e-07 -6.4977826e-07  1.1256571e-07 -7.0428478e-08  23.148346    
    100040   22.899987      50000          50000          50000         -1.7485821e-07 -6.5261465e-07  1.6253615e-07 -3.4496135e-08  22.899987    
    100060   22.123085      50000          50000          50000         -1.4749272e-07 -6.4108414e-07  2.0004634e-07 -1.4403657e-09  22.123085    
    100080   21.020704      50000          50000          50000         -1.2227358e-07 -6.1531236e-07  2.2143794e-07  2.7053665e-08  21.020704    
    100100   19.95187       50000          50000          50000         -1.0072565e-07 -5.7600653e-07  2.2405255e-07  4.9777014e-08  19.95187     
Loop time of 4.15383 on 1 procs for 100000 steps with 100 atoms

Performance: 2080.008 ns/day, 0.012 hours/ns, 24074.169 timesteps/s, 2.407 Matom-step/s
58.2% CPU use with 1 MPI tasks x no OpenMP threads

MPI task timing breakdown:
Section |  min time  |  avg time  |  max time  |%varavg| %total
---------------------------------------------------------------
Pair    | 0.66338    | 0.66338    | 0.66338    |   0.0 | 15.97
Bond    | 0.34095    | 0.34095    | 0.34095    |   0.0 |  8.21
Neigh   | 1.1047     | 1.1047     | 1.1047     |   0.0 | 26.59
Comm    | 0.094092   | 0.094092   | 0.094092   |   0.0 |  2.27
Output  | 0.66112    | 0.66112    | 0.66112    |   0.0 | 15.92
Modify  | 1.1068     | 1.1068     | 1.1068     |   0.0 | 26.64
Other   |            | 0.1828     |            |       |  4.40

Nlocal:            100 ave         100 max         100 min
Histogram: 1 0 0 0 0 0 0 0 0 0
Nghost:              0 ave           0 max           0 min
Histogram: 1 0 0 0 0 0 0 0 0 0
Neighs:            196 ave         196 max         196 min
Histogram: 1 0 0 0 0 0 0 0 0 0
FullNghs:            0 ave           0 max           0 min
Histogram: 1 0 0 0 0 0 0 0 0 0

Total # of neighbors = 196
Ave neighs/atom = 1.96
Ave special neighs/atom = 5.88
Neighbor list builds = 5546
Dangerous builds = 0

thermo_style custom step temp f_3[*]
#####################################################
print "All done"
All done
Total wall time: 0:00:05
