read_data	InitialFile.txt
Reading data file ...
  orthogonal box = (0 0 0) to (158.5 158.5 158.5)
  1 by 1 by 1 MPI processor grid
WARNING: Atom style in data file atomic differs from currently defined atom style molecular (src/src/read_data.cpp:621)
  reading atoms ...
  100 atoms
  scanning bonds ...
  1 = max bonds/atom
  scanning angles ...
  1 = max angles/atom
  scanning dihedrals ...
  1 = max dihedrals/atom
  reading bonds ...
  99 bonds
  reading angles ...
  98 angles
  reading dihedrals ...
  97 dihedrals
Finding 1-2 1-3 1-4 neighbors ...
  special bond factors lj:    0        0        0       
  special bond factors coul:  0        0        0       
     2 = max # of 1-2 neighbors
     2 = max # of 1-3 neighbors
     4 = max # of 1-4 neighbors
     6 = max # of special neighbors
  special bonds CPU = 0.056 seconds
  read_data CPU = 0.071 seconds

# Dreiding potential information
neighbor	0.4 bin
neigh_modify every 1 delay 0 check yes

bond_style      harmonic
bond_coeff	1 350 1.53
bond_coeff	2 700 1.53

angle_style     harmonic
angle_coeff	1 60 109.5
angle_coeff	2 120 109.5

dihedral_style	multi/harmonic
dihedral_coeff	1 1.73 -4.49 0.776 6.99 0.0
dihedral_coeff	2 1.73 -4.49 0.776 6.99 0.0

pair_style	lj/cut 10.5
pair_coeff	* * 1.0 1.0 10.5
pair_coeff	3 3 2.0 0.5 10.5

compute csym all centro/atom fcc
compute peratom all pe/atom


#####################################################
# Equilibration (Brownian dynamics at 300 K)

velocity 	all create 300.0 1231
fix		1 all nve/limit 0.05
fix 2 all brownian 30.0 12908410 gamma_t 3.0 rng gaussian # Compute a correct 300K simulation, check the value for gamma_t
thermo_style	custom step temp
thermo          10000
timestep	1
run		100000
Generated 0 of 3 mixed pair_coeff terms from geometric mixing rule
WARNING: One or more atoms are time integrated more than once (src/src/modify.cpp:289)
Neighbor list info ...
  update: every = 1 steps, delay = 0 steps, check = yes
  max neighbors/atom: 2000, page size: 100000
  master list distance cutoff = 10.9
  ghost atom cutoff = 10.9
  binsize = 5.45, bins = 30 30 30
  2 neighbor lists, perpetual/occasional/extra = 1 1 0
  (1) pair lj/cut, perpetual
      attributes: half, newton on
      pair build: half/bin/newton
      stencil: half/bin/3d
      bin: standard
  (2) compute centro/atom, occasional
      attributes: full, newton on
      pair build: full/bin
      stencil: full/bin/3d
      bin: standard
Per MPI rank memory allocation (min/avg/max) = 8.15 | 8.15 | 8.15 Mbytes
   Step          Temp     
         0   300          
     10000   301.14599    
     20000   258.43265    
     30000   315.00716    
     40000   287.928      
     50000   282.35252    
     60000   293.73761    
     70000   308.65289    
     80000   274.33589    
     90000   333.74747    
    100000   336.59711    
Loop time of 4.25515 on 1 procs for 100000 steps with 100 atoms

Performance: 2030.481 ns/day, 0.012 hours/ns, 23500.937 timesteps/s, 2.350 Matom-step/s
95.7% CPU use with 1 MPI tasks x no OpenMP threads

MPI task timing breakdown:
Section |  min time  |  avg time  |  max time  |%varavg| %total
---------------------------------------------------------------
Pair    | 0.88604    | 0.88604    | 0.88604    |   0.0 | 20.82
Bond    | 1.9597     | 1.9597     | 1.9597     |   0.0 | 46.06
Neigh   | 0.11257    | 0.11257    | 0.11257    |   0.0 |  2.65
Comm    | 0.023659   | 0.023659   | 0.023659   |   0.0 |  0.56
Output  | 0.00037131 | 0.00037131 | 0.00037131 |   0.0 |  0.01
Modify  | 1.1716     | 1.1716     | 1.1716     |   0.0 | 27.53
Other   |            | 0.1012     |            |       |  2.38

Nlocal:            100 ave         100 max         100 min
Histogram: 1 0 0 0 0 0 0 0 0 0
Nghost:              0 ave           0 max           0 min
Histogram: 1 0 0 0 0 0 0 0 0 0
Neighs:            470 ave         470 max         470 min
Histogram: 1 0 0 0 0 0 0 0 0 0
FullNghs:            0 ave           0 max           0 min
Histogram: 1 0 0 0 0 0 0 0 0 0

Total # of neighbors = 470
Ave neighs/atom = 4.7
Ave special neighs/atom = 5.88
Neighbor list builds = 1405
Dangerous builds = 0
unfix 1
unfix 2
write_restart 	restart.${simname}.dreiding1
write_restart 	restart.InitialFile.dreiding1
System init for write_restart ...
Generated 0 of 3 mixed pair_coeff terms from geometric mixing rule

#####################################################
# Define Settings
compute eng all pe/atom
compute eatoms all reduce sum c_eng

#####################################################
# Minimization

dump mydmp all atom 100 dump.lammpstrj

reset_timestep 0
fix 1 all nvt temp 300.0 300.0 100.0
thermo 20
thermo_style custom step pe lx ly lz press pxx pyy pzz c_eatoms
min_style cg
minimize 1e-25 1e-25 500000 1000000
Generated 0 of 3 mixed pair_coeff terms from geometric mixing rule
Per MPI rank memory allocation (min/avg/max) = 9.275 | 9.275 | 9.275 Mbytes
   Step         PotEng           Lx             Ly             Lz           Press           Pxx            Pyy            Pzz          c_eatoms   
         0   16.768637      158.5          158.5          158.5          1.4817023      2.0121743      0.79146994     1.6414627      16.768637    
        20   2.7692536      158.5          158.5          158.5          2.2594386      2.4311181      2.2696493      2.0775483      2.7692536    
        40   1.9459707      158.5          158.5          158.5          2.2020925      2.2702807      2.2602139      2.0757829      1.9459707    
        60   1.9274473      158.5          158.5          158.5          2.125699       2.4277887      2.0640922      1.885216       1.9274473    
Loop time of 0.00779382 on 1 procs for 60 steps with 100 atoms

91.7% CPU use with 1 MPI tasks x no OpenMP threads

Minimization stats:
  Stopping criterion = energy tolerance
  Energy initial, next-to-last, final = 
      16.7686369499761   1.92744725227754   1.92744725227754
  Force two-norm initial, final = 142.94658 6.8303775
  Force max component initial, final = 32.79334 2.4664624
  Final line search alpha, max atom move = 0.020271949 0.05
  Iterations, force evaluations = 60 155

MPI task timing breakdown:
Section |  min time  |  avg time  |  max time  |%varavg| %total
---------------------------------------------------------------
Pair    | 0.0031286  | 0.0031286  | 0.0031286  |   0.0 | 40.14
Bond    | 0.0035642  | 0.0035642  | 0.0035642  |   0.0 | 45.73
Neigh   | 0.00019283 | 0.00019283 | 0.00019283 |   0.0 |  2.47
Comm    | 3.7064e-05 | 3.7064e-05 | 3.7064e-05 |   0.0 |  0.48
Output  | 5.5189e-05 | 5.5189e-05 | 5.5189e-05 |   0.0 |  0.71
Modify  | 0          | 0          | 0          |   0.0 |  0.00
Other   |            | 0.0008159  |            |       | 10.47

Nlocal:            100 ave         100 max         100 min
Histogram: 1 0 0 0 0 0 0 0 0 0
Nghost:              0 ave           0 max           0 min
Histogram: 1 0 0 0 0 0 0 0 0 0
Neighs:            470 ave         470 max         470 min
Histogram: 1 0 0 0 0 0 0 0 0 0
FullNghs:            0 ave           0 max           0 min
Histogram: 1 0 0 0 0 0 0 0 0 0

Total # of neighbors = 470
Ave neighs/atom = 4.7
Ave special neighs/atom = 5.88
Neighbor list builds = 2
Dangerous builds = 0

group type1_atoms type 1
35 atoms in group type1_atoms
group type2_atoms type 2
28 atoms in group type2_atoms
group type3_atoms type 3
37 atoms in group type3_atoms

molecule mol1closeTo3PRE mol1closeTo3PRE.txt
Read molecule template mol1closeTo3PRE:
  1 molecules
  0 fragments
  3 atoms with max type 3
  0 bonds with max type 0
  0 angles with max type 0
  0 dihedrals with max type 0
  0 impropers with max type 0
molecule mol1closeTo3POST mol1closeTo3POST.txt
Read molecule template mol1closeTo3POST:
  1 molecules
  0 fragments
  3 atoms with max type 3
  0 bonds with max type 0
  0 angles with max type 0
  0 dihedrals with max type 0
  0 impropers with max type 0
molecule mol3closeTo1POST mol3closeTo1POST.txt
Read molecule template mol3closeTo1POST:
  1 molecules
  0 fragments
  3 atoms with max type 2
  0 bonds with max type 0
  0 angles with max type 0
  0 dihedrals with max type 0
  0 impropers with max type 0
molecule mol2closeTo3PRE mol2closeTo3PRE.txt
Read molecule template mol2closeTo3PRE:
  1 molecules
  0 fragments
  3 atoms with max type 3
  0 bonds with max type 0
  0 angles with max type 0
  0 dihedrals with max type 0
  0 impropers with max type 0
molecule mol2closeTo3POST mol2closeTo3POST.txt
Read molecule template mol2closeTo3POST:
  1 molecules
  0 fragments
  3 atoms with max type 3
  0 bonds with max type 0
  0 angles with max type 0
  0 dihedrals with max type 0
  0 impropers with max type 0
molecule mol3closeTo2POST mol3closeTo2POST.txt
Read molecule template mol3closeTo2POST:
  1 molecules
  0 fragments
  3 atoms with max type 2
  0 bonds with max type 0
  0 angles with max type 0
  0 dihedrals with max type 0
  0 impropers with max type 0
molecule mol2closeTo1PRE mol2closeTo1PRE.txt
Read molecule template mol2closeTo1PRE:
  1 molecules
  0 fragments
  3 atoms with max type 3
  0 bonds with max type 0
  0 angles with max type 0
  0 dihedrals with max type 0
  0 impropers with max type 0
molecule mol2closeTo1POST mol2closeTo1POST.txt
Read molecule template mol2closeTo1POST:
  1 molecules
  0 fragments
  3 atoms with max type 3
  0 bonds with max type 0
  0 angles with max type 0
  0 dihedrals with max type 0
  0 impropers with max type 0

fix 3 all bond/react   react reac1to2 type1_atoms 1 0 8 mol1closeTo3PRE mol1closeTo3POST map_1to2.txt   react reac2to3 type2_atoms 1 0 8 mol2closeTo3PRE mol2closeTo3POST map_2to3.txt   react reac3to2 type3_atoms 1 0 8 mol2closeTo3PRE mol3closeTo2POST map_3to2.txt   react reac2to1 type2_atoms 1 0 8 mol2closeTo1PRE mol2closeTo1POST map_2to1.txt
dynamic group bond_react_MASTER_group defined
group type1_atoms type 1
35 atoms in group type1_atoms
group type2_atoms type 2
28 atoms in group type2_atoms
group type3_atoms type 3
37 atoms in group type3_atoms

thermo_style multi f_react[1]
run 50000

CITE-CITE-CITE-CITE-CITE-CITE-CITE-CITE-CITE-CITE-CITE-CITE-CITE

Your simulation uses code contributions which should be cited:

- fix bond/react: reacter.org doi:10.1016/j.polymer.2017.09.038, doi:10.1021/acs.macromol.0c02012

@Article{Gissinger17,
 author = {J. R. Gissinger and B. D. Jensen and K. E. Wise},
 title = {Modeling Chemical Reactions in Classical Molecular Dynamics Simulations},
 journal = {Polymer},
 year =    2017,
 volume =  128,
 pages =   {211--217}
}

@Article{Gissinger20,
 author = {J. R. Gissinger, B. D. Jensen, K. E. Wise},
 title = {{REACTER}: A Heuristic Method for Reactive Molecular Dynamics},
 journal = {Macromolecules},
 year =    2020,
 volume =  53,
 number =  22,
 pages =   {9953--9961}
}

CITE-CITE-CITE-CITE-CITE-CITE-CITE-CITE-CITE-CITE-CITE-CITE-CITE

Generated 0 of 3 mixed pair_coeff terms from geometric mixing rule
Neighbor list info ...
  update: every = 1 steps, delay = 0 steps, check = yes
  max neighbors/atom: 2000, page size: 100000
  master list distance cutoff = 10.9
  ghost atom cutoff = 10.9
  binsize = 5.45, bins = 30 30 30
  3 neighbor lists, perpetual/occasional/extra = 1 2 0
  (1) pair lj/cut, perpetual
      attributes: half, newton on
      pair build: half/bin/newton
      stencil: half/bin/3d
      bin: standard
  (2) compute centro/atom, occasional
      attributes: full, newton on
      pair build: full/bin
      stencil: full/bin/3d
      bin: standard
  (3) fix bond/react, occasional, copy from (1)
      attributes: half, newton on
      pair build: copy
      stencil: none
      bin: none
Per MPI rank memory allocation (min/avg/max) = 9.591 | 9.591 | 9.591 Mbytes
------------ Step             60 ----- CPU =            0 (sec) -------------
TotEng   =       101.2573 KinEng   =        99.3299 Temp     =       336.5971 
PotEng   =         1.9274 E_bond   =         0.1257 E_angle  =         0.5062 
E_dihed  =         1.3260 E_impro  =         0.0000 E_vdwl   =        -0.0304 
E_coul   =         0.0000 E_long   =         0.0000 Press    =         2.1257
------------ Step             80 ----- CPU =  0.002096431 (sec) -------------
TotEng   =       102.0543 KinEng   =        47.2207 Temp     =       160.0158 
PotEng   =        54.8336 E_bond   =        28.2354 E_angle  =        16.0581 
E_dihed  =        10.5705 E_impro  =         0.0000 E_vdwl   =        -0.0305 
E_coul   =         0.0000 E_long   =         0.0000 Press    =        -0.6920
------------ Step            100 ----- CPU =    0.0035579 (sec) -------------
TotEng   =       103.6515 KinEng   =        52.7833 Temp     =       178.8658 
PotEng   =        50.8682 E_bond   =        20.7212 E_angle  =         9.4460 
E_dihed  =        20.7315 E_impro  =         0.0000 E_vdwl   =        -0.0305 
E_coul   =         0.0000 E_long   =         0.0000 Press    =         1.4564
------------ Step            120 ----- CPU =  0.004551216 (sec) -------------
TotEng   =       106.9638 KinEng   =        59.0713 Temp     =       200.1737 
PotEng   =        47.8925 E_bond   =        16.8931 E_angle  =        13.2887 
E_dihed  =        17.7413 E_impro  =         0.0000 E_vdwl   =        -0.0305 
E_coul   =         0.0000 E_long   =         0.0000 Press    =         0.6123
------------ Step            140 ----- CPU =   0.00600617 (sec) -------------
TotEng   =       111.4305 KinEng   =        67.2421 Temp     =       227.8619 
PotEng   =        44.1885 E_bond   =        20.1813 E_angle  =        11.5919 
E_dihed  =        12.4456 E_impro  =         0.0000 E_vdwl   =        -0.0304 
E_coul   =         0.0000 E_long   =         0.0000 Press    =        -0.7419
------------ Step            160 ----- CPU =  0.007391811 (sec) -------------
TotEng   =       114.9970 KinEng   =        48.5413 Temp     =       164.4909 
PotEng   =        66.4557 E_bond   =        28.9170 E_angle  =        21.0480 
E_dihed  =        16.5209 E_impro  =         0.0000 E_vdwl   =        -0.0303 
E_coul   =         0.0000 E_long   =         0.0000 Press    =         0.6075
------------ Step            180 ----- CPU =  0.008595288 (sec) -------------
TotEng   =       117.8919 KinEng   =        62.7457 Temp     =       212.6251 
PotEng   =        55.1462 E_bond   =        21.2678 E_angle  =        14.2451 
E_dihed  =        19.6636 E_impro  =         0.0000 E_vdwl   =        -0.0303 
E_coul   =         0.0000 E_long   =         0.0000 Press    =         0.1978
------------ Step            200 ----- CPU =   0.01015037 (sec) -------------
TotEng   =       121.1953 KinEng   =        65.4466 Temp     =       221.7775 
PotEng   =        55.7487 E_bond   =        25.3626 E_angle  =        13.9146 
E_dihed  =        16.5019 E_impro  =         0.0000 E_vdwl   =        -0.0303 
E_coul   =         0.0000 E_long   =         0.0000 Press    =        -0.8407
------------ Step            220 ----- CPU =   0.01178933 (sec) -------------
TotEng   =       125.0814 KinEng   =        68.8564 Temp     =       233.3324 
PotEng   =        56.2250 E_bond   =        21.9065 E_angle  =        18.7485 
E_dihed  =        15.6003 E_impro  =         0.0000 E_vdwl   =        -0.0303 
E_coul   =         0.0000 E_long   =         0.0000 Press    =         0.4577
------------ Step            240 ----- CPU =   0.01311233 (sec) -------------
TotEng   =       129.0963 KinEng   =        65.8653 Temp     =       223.1965 
PotEng   =        63.2309 E_bond   =        29.8707 E_angle  =        13.7341 
E_dihed  =        19.6563 E_impro  =         0.0000 E_vdwl   =        -0.0302 
E_coul   =         0.0000 E_long   =         0.0000 Press    =         0.0267
------------ Step            260 ----- CPU =    0.0141731 (sec) -------------
TotEng   =       133.3040 KinEng   =        78.1739 Temp     =       264.9063 
PotEng   =        55.1300 E_bond   =        21.0747 E_angle  =        12.7040 
E_dihed  =        21.3814 E_impro  =         0.0000 E_vdwl   =        -0.0301 
E_coul   =         0.0000 E_long   =         0.0000 Press    =        -0.3082
------------ Step            280 ----- CPU =   0.01563278 (sec) -------------
TotEng   =       137.8581 KinEng   =        73.6889 Temp     =       249.7081 
PotEng   =        64.1692 E_bond   =        27.4630 E_angle  =        16.6844 
E_dihed  =        20.0520 E_impro  =         0.0000 E_vdwl   =        -0.0302 
E_coul   =         0.0000 E_long   =         0.0000 Press    =        -0.1799
------------ Step            300 ----- CPU =    0.0169546 (sec) -------------
TotEng   =       142.1670 KinEng   =        78.9773 Temp     =       267.6289 
PotEng   =        63.1896 E_bond   =        23.4848 E_angle  =        18.5955 
E_dihed  =        21.1396 E_impro  =         0.0000 E_vdwl   =        -0.0303 
E_coul   =         0.0000 E_long   =         0.0000 Press    =        -0.5692
------------ Step            320 ----- CPU =   0.01853674 (sec) -------------
TotEng   =       146.5715 KinEng   =        83.8343 Temp     =       284.0876 
PotEng   =        62.7372 E_bond   =        24.0304 E_angle  =        16.6079 
E_dihed  =        22.1291 E_impro  =         0.0000 E_vdwl   =        -0.0302 
E_coul   =         0.0000 E_long   =         0.0000 Press    =        -1.5064
------------ Step            340 ----- CPU =   0.01977053 (sec) -------------
TotEng   =       150.8704 KinEng   =        83.4614 Temp     =       282.8239 
PotEng   =        67.4090 E_bond   =        26.9534 E_angle  =        20.2268 
E_dihed  =        20.2589 E_impro  =         0.0000 E_vdwl   =        -0.0301 
E_coul   =         0.0000 E_long   =         0.0000 Press    =        -1.1537
------------ Step            360 ----- CPU =   0.02141891 (sec) -------------
TotEng   =       154.8978 KinEng   =        79.0861 Temp     =       267.9976 
PotEng   =        75.8117 E_bond   =        37.1355 E_angle  =        17.2967 
E_dihed  =        21.4094 E_impro  =         0.0000 E_vdwl   =        -0.0299 
E_coul   =         0.0000 E_long   =         0.0000 Press    =        -1.5505
------------ Step            380 ----- CPU =    0.0228665 (sec) -------------
TotEng   =       158.4799 KinEng   =        86.8521 Temp     =       294.3140 
PotEng   =        71.6278 E_bond   =        25.7050 E_angle  =        19.5939 
E_dihed  =        26.3585 E_impro  =         0.0000 E_vdwl   =        -0.0297 
E_coul   =         0.0000 E_long   =         0.0000 Press    =        -2.9663
------------ Step            400 ----- CPU =   0.02386355 (sec) -------------
TotEng   =       162.2876 KinEng   =        77.9018 Temp     =       263.9842 
PotEng   =        84.3858 E_bond   =        33.2349 E_angle  =        24.5429 
E_dihed  =        26.6376 E_impro  =         0.0000 E_vdwl   =        -0.0295 
E_coul   =         0.0000 E_long   =         0.0000 Press    =        -2.1978
------------ Step            420 ----- CPU =   0.03432881 (sec) -------------
TotEng   =       165.9548 KinEng   =        87.0107 Temp     =       294.8514 
PotEng   =        78.9441 E_bond   =        33.1428 E_angle  =        20.7168 
E_dihed  =        25.1140 E_impro  =         0.0000 E_vdwl   =        -0.0295 
E_coul   =         0.0000 E_long   =         0.0000 Press    =        -2.8439
------------ Step            440 ----- CPU =   0.03708087 (sec) -------------
TotEng   =       169.6053 KinEng   =        79.7127 Temp     =       270.1208 
PotEng   =        89.8926 E_bond   =        40.9792 E_angle  =        20.5600 
E_dihed  =        28.3830 E_impro  =         0.0000 E_vdwl   =        -0.0296 
E_coul   =         0.0000 E_long   =         0.0000 Press    =        -4.3821
------------ Step            460 ----- CPU =   0.03825944 (sec) -------------
TotEng   =       172.6654 KinEng   =        95.0340 Temp     =       322.0397 
PotEng   =        77.6314 E_bond   =        23.3953 E_angle  =        22.4101 
E_dihed  =        31.8556 E_impro  =         0.0000 E_vdwl   =        -0.0296 
E_coul   =         0.0000 E_long   =         0.0000 Press    =        -1.6038
------------ Step            480 ----- CPU =   0.03964401 (sec) -------------
TotEng   =       176.0190 KinEng   =        82.7601 Temp     =       280.4475 
PotEng   =        93.2588 E_bond   =        37.8566 E_angle  =        24.8273 
E_dihed  =        30.6048 E_impro  =         0.0000 E_vdwl   =        -0.0298 
E_coul   =         0.0000 E_long   =         0.0000 Press    =        -3.2364
------------ Step            500 ----- CPU =   0.04064935 (sec) -------------
TotEng   =       178.9974 KinEng   =        93.5059 Temp     =       316.8615 
PotEng   =        85.4915 E_bond   =        30.9062 E_angle  =        28.2060 
E_dihed  =        26.4094 E_impro  =         0.0000 E_vdwl   =        -0.0301 
E_coul   =         0.0000 E_long   =         0.0000 Press    =        -3.2884
------------ Step            520 ----- CPU =   0.04285143 (sec) -------------
TotEng   =       181.6911 KinEng   =        99.6981 Temp     =       337.8449 
PotEng   =        81.9930 E_bond   =        30.4136 E_angle  =        24.4482 
E_dihed  =        27.1613 E_impro  =         0.0000 E_vdwl   =        -0.0301 
E_coul   =         0.0000 E_long   =         0.0000 Press    =         0.6698
------------ Step            540 ----- CPU =   0.04393152 (sec) -------------
TotEng   =       183.6006 KinEng   =        93.5907 Temp     =       317.1489 
PotEng   =        90.0099 E_bond   =        33.1496 E_angle  =        26.0799 
E_dihed  =        30.8105 E_impro  =         0.0000 E_vdwl   =        -0.0301 
E_coul   =         0.0000 E_long   =         0.0000 Press    =        -2.3545
------------ Step            560 ----- CPU =   0.04499249 (sec) -------------
TotEng   =       185.3119 KinEng   =        88.4934 Temp     =       299.8758 
PotEng   =        96.8185 E_bond   =        41.5346 E_angle  =        25.6942 
E_dihed  =        29.6200 E_impro  =         0.0000 E_vdwl   =        -0.0302 
E_coul   =         0.0000 E_long   =         0.0000 Press    =        -3.4092
------------ Step            580 ----- CPU =   0.04673016 (sec) -------------
TotEng   =       186.8368 KinEng   =        95.4484 Temp     =       323.4440 
PotEng   =        91.3884 E_bond   =        31.4050 E_angle  =        32.1686 
E_dihed  =        27.8452 E_impro  =         0.0000 E_vdwl   =        -0.0303 
E_coul   =         0.0000 E_long   =         0.0000 Press    =         1.6855
------------ Step            600 ----- CPU =    0.0478539 (sec) -------------
TotEng   =       187.9159 KinEng   =        95.4221 Temp     =       323.3550 
PotEng   =        92.4938 E_bond   =        36.6236 E_angle  =        25.4103 
E_dihed  =        30.4903 E_impro  =         0.0000 E_vdwl   =        -0.0304 
E_coul   =         0.0000 E_long   =         0.0000 Press    =        -2.5542
------------ Step            620 ----- CPU =   0.04923308 (sec) -------------
TotEng   =       188.5142 KinEng   =        92.7819 Temp     =       314.4083 
PotEng   =        95.7322 E_bond   =        35.8739 E_angle  =        27.3749 
E_dihed  =        32.5139 E_impro  =         0.0000 E_vdwl   =        -0.0305 
E_coul   =         0.0000 E_long   =         0.0000 Press    =        -3.1743
------------ Step            640 ----- CPU =   0.05056613 (sec) -------------
TotEng   =       188.8546 KinEng   =        94.1347 Temp     =       318.9922 
PotEng   =        94.7199 E_bond   =        38.6949 E_angle  =        25.8837 
E_dihed  =        30.1719 E_impro  =         0.0000 E_vdwl   =        -0.0306 
E_coul   =         0.0000 E_long   =         0.0000 Press    =         2.8382
------------ Step            660 ----- CPU =   0.05430913 (sec) -------------
TotEng   =       188.1794 KinEng   =       102.2484 Temp     =       346.4870 
PotEng   =        85.9310 E_bond   =        32.8906 E_angle  =        23.7826 
E_dihed  =        29.2884 E_impro  =         0.0000 E_vdwl   =        -0.0306 
E_coul   =         0.0000 E_long   =         0.0000 Press    =        -2.1884
------------ Step            680 ----- CPU =    0.0564971 (sec) -------------
TotEng   =       186.6986 KinEng   =        89.0890 Temp     =       301.8941 
PotEng   =        97.6096 E_bond   =        41.0959 E_angle  =        22.6927 
E_dihed  =        33.8517 E_impro  =         0.0000 E_vdwl   =        -0.0307 
E_coul   =         0.0000 E_long   =         0.0000 Press    =        -3.5296
------------ Step            700 ----- CPU =   0.05810657 (sec) -------------
TotEng   =       184.4478 KinEng   =        96.9324 Temp     =       328.4727 
PotEng   =        87.5155 E_bond   =        28.7173 E_angle  =        24.8367 
E_dihed  =        33.9924 E_impro  =         0.0000 E_vdwl   =        -0.0309 
E_coul   =         0.0000 E_long   =         0.0000 Press    =         3.4144
------------ Step            720 ----- CPU =   0.05965127 (sec) -------------
TotEng   =       181.5223 KinEng   =        95.4718 Temp     =       323.5233 
PotEng   =        86.0505 E_bond   =        37.8221 E_angle  =        19.9920 
E_dihed  =        28.2675 E_impro  =         0.0000 E_vdwl   =        -0.0311 
E_coul   =         0.0000 E_long   =         0.0000 Press    =        -1.9191
------------ Step            740 ----- CPU =   0.06155168 (sec) -------------
TotEng   =       177.7242 KinEng   =        99.7643 Temp     =       338.0692 
PotEng   =        77.9599 E_bond   =        30.1183 E_angle  =        20.3189 
E_dihed  =        27.5539 E_impro  =         0.0000 E_vdwl   =        -0.0313 
E_coul   =         0.0000 E_long   =         0.0000 Press    =        -2.5508
------------ Step            760 ----- CPU =   0.06290875 (sec) -------------
TotEng   =       173.8749 KinEng   =        87.2332 Temp     =       295.6054 
PotEng   =        86.6417 E_bond   =        34.5101 E_angle  =        20.0092 
E_dihed  =        32.1539 E_impro  =         0.0000 E_vdwl   =        -0.0315 
E_coul   =         0.0000 E_long   =         0.0000 Press    =         4.2069
------------ Step            780 ----- CPU =   0.06404984 (sec) -------------
TotEng   =       170.4851 KinEng   =        86.8362 Temp     =       294.2601 
PotEng   =        83.6489 E_bond   =        28.5990 E_angle  =        19.6952 
E_dihed  =        35.3863 E_impro  =         0.0000 E_vdwl   =        -0.0316 
E_coul   =         0.0000 E_long   =         0.0000 Press    =        -0.8791
------------ Step            800 ----- CPU =   0.06519505 (sec) -------------
TotEng   =       168.0473 KinEng   =        84.9246 Temp     =       287.7824 
PotEng   =        83.1226 E_bond   =        30.4432 E_angle  =        19.6932 
E_dihed  =        33.0181 E_impro  =         0.0000 E_vdwl   =        -0.0318 
E_coul   =         0.0000 E_long   =         0.0000 Press    =        -1.9340
------------ Step            820 ----- CPU =   0.06751313 (sec) -------------
TotEng   =       166.1403 KinEng   =        89.6976 Temp     =       303.9564 
PotEng   =        76.4427 E_bond   =        27.7022 E_angle  =        18.0051 
E_dihed  =        30.7674 E_impro  =         0.0000 E_vdwl   =        -0.0319 
E_coul   =         0.0000 E_long   =         0.0000 Press    =         4.6725
------------ Step            840 ----- CPU =   0.07013564 (sec) -------------
TotEng   =       164.8316 KinEng   =        76.3751 Temp     =       258.8106 
PotEng   =        88.4565 E_bond   =        37.0571 E_angle  =        20.2539 
E_dihed  =        31.1775 E_impro  =         0.0000 E_vdwl   =        -0.0319 
E_coul   =         0.0000 E_long   =         0.0000 Press    =        -0.2154
------------ Step            860 ----- CPU =   0.07145579 (sec) -------------
TotEng   =       163.8328 KinEng   =        84.9690 Temp     =       287.9327 
PotEng   =        78.8639 E_bond   =        25.4966 E_angle  =        20.7726 
E_dihed  =        32.6266 E_impro  =         0.0000 E_vdwl   =        -0.0319 
E_coul   =         0.0000 E_long   =         0.0000 Press    =        -1.2044
------------ Step            880 ----- CPU =   0.07317214 (sec) -------------
TotEng   =       163.6780 KinEng   =        77.0467 Temp     =       261.0867 
PotEng   =        86.6313 E_bond   =        31.4280 E_angle  =        23.9184 
E_dihed  =        31.3168 E_impro  =         0.0000 E_vdwl   =        -0.0319 
E_coul   =         0.0000 E_long   =         0.0000 Press    =         4.7034
------------ Step            900 ----- CPU =   0.07425198 (sec) -------------
TotEng   =       164.0578 KinEng   =        83.2925 Temp     =       282.2514 
PotEng   =        80.7653 E_bond   =        31.7371 E_angle  =        22.1166 
E_dihed  =        26.9436 E_impro  =         0.0000 E_vdwl   =        -0.0319 
E_coul   =         0.0000 E_long   =         0.0000 Press    =        -0.1421
------------ Step            920 ----- CPU =   0.07697182 (sec) -------------
TotEng   =       164.7102 KinEng   =        84.9910 Temp     =       288.0072 
PotEng   =        79.7193 E_bond   =        33.7865 E_angle  =        19.3504 
E_dihed  =        26.6144 E_impro  =         0.0000 E_vdwl   =        -0.0320 
E_coul   =         0.0000 E_long   =         0.0000 Press    =        -1.1679
------------ Step            940 ----- CPU =   0.08046329 (sec) -------------
TotEng   =       165.6846 KinEng   =        86.9198 Temp     =       294.5433 
PotEng   =        78.7648 E_bond   =        31.4384 E_angle  =        17.3587 
E_dihed  =        29.9997 E_impro  =         0.0000 E_vdwl   =        -0.0320 
E_coul   =         0.0000 E_long   =         0.0000 Press    =         4.8838
------------ Step            960 ----- CPU =   0.08217182 (sec) -------------
TotEng   =       166.9992 KinEng   =        78.5920 Temp     =       266.3231 
PotEng   =        88.4072 E_bond   =        29.1589 E_angle  =        25.9689 
E_dihed  =        33.3114 E_impro  =         0.0000 E_vdwl   =        -0.0320 
E_coul   =         0.0000 E_long   =         0.0000 Press    =         0.1690
------------ Step            980 ----- CPU =   0.08711317 (sec) -------------
TotEng   =       169.0982 KinEng   =        82.6003 Temp     =       279.9061 
PotEng   =        86.4979 E_bond   =        31.5809 E_angle  =        19.2992 
E_dihed  =        35.6498 E_impro  =         0.0000 E_vdwl   =        -0.0321 
E_coul   =         0.0000 E_long   =         0.0000 Press    =        -0.7675
------------ Step           1000 ----- CPU =   0.09006035 (sec) -------------
TotEng   =       171.9803 KinEng   =        85.5291 Temp     =       289.8308 
PotEng   =        86.4512 E_bond   =        29.8273 E_angle  =        23.6419 
E_dihed  =        33.0141 E_impro  =         0.0000 E_vdwl   =        -0.0321 
E_coul   =         0.0000 E_long   =         0.0000 Press    =         4.8539
------------ Step           1020 ----- CPU =   0.09243421 (sec) -------------
TotEng   =       175.7289 KinEng   =        95.6139 Temp     =       324.0049 
PotEng   =        80.1150 E_bond   =        28.1649 E_angle  =        21.9690 
E_dihed  =        30.0130 E_impro  =         0.0000 E_vdwl   =        -0.0320 
E_coul   =         0.0000 E_long   =         0.0000 Press    =         0.6076
------------ Step           1040 ----- CPU =   0.09406567 (sec) -------------
TotEng   =       179.4915 KinEng   =        83.7814 Temp     =       283.9083 
PotEng   =        95.7101 E_bond   =        38.5998 E_angle  =        23.6955 
E_dihed  =        33.4468 E_impro  =         0.0000 E_vdwl   =        -0.0319 
E_coul   =         0.0000 E_long   =         0.0000 Press    =        -1.3638
------------ Step           1060 ----- CPU =   0.09747256 (sec) -------------
TotEng   =       182.4503 KinEng   =        93.9615 Temp     =       318.4055 
PotEng   =        88.4888 E_bond   =        30.8040 E_angle  =        20.7098 
E_dihed  =        37.0069 E_impro  =         0.0000 E_vdwl   =        -0.0319 
E_coul   =         0.0000 E_long   =         0.0000 Press    =         3.6049
------------ Step           1080 ----- CPU =   0.09889633 (sec) -------------
TotEng   =       185.1100 KinEng   =        89.2389 Temp     =       302.4022 
PotEng   =        95.8711 E_bond   =        35.0099 E_angle  =        25.3258 
E_dihed  =        35.5673 E_impro  =         0.0000 E_vdwl   =        -0.0318 
E_coul   =         0.0000 E_long   =         0.0000 Press    =        -0.4585
------------ Step           1100 ----- CPU =    0.1021933 (sec) -------------
TotEng   =       187.0872 KinEng   =        94.3617 Temp     =       319.7617 
PotEng   =        92.7255 E_bond   =        35.3043 E_angle  =        24.5092 
E_dihed  =        32.9438 E_impro  =         0.0000 E_vdwl   =        -0.0318 
E_coul   =         0.0000 E_long   =         0.0000 Press    =        -2.2304
------------ Step           1120 ----- CPU =    0.1169647 (sec) -------------
TotEng   =       188.0886 KinEng   =        91.2411 Temp     =       309.1870 
PotEng   =        96.8475 E_bond   =        39.0400 E_angle  =        24.1537 
E_dihed  =        33.6856 E_impro  =         0.0000 E_vdwl   =        -0.0318 
E_coul   =         0.0000 E_long   =         0.0000 Press    =         2.9807
------------ Step           1140 ----- CPU =    0.1228046 (sec) -------------
TotEng   =       188.2555 KinEng   =       100.5658 Temp     =       340.7854 
PotEng   =        87.6897 E_bond   =        32.3660 E_angle  =        21.3885 
E_dihed  =        33.9669 E_impro  =         0.0000 E_vdwl   =        -0.0318 
E_coul   =         0.0000 E_long   =         0.0000 Press    =         0.3755
------------ Step           1160 ----- CPU =    0.1327151 (sec) -------------
TotEng   =       187.9866 KinEng   =        90.4930 Temp     =       306.6517 
PotEng   =        97.4936 E_bond   =        37.7528 E_angle  =        24.7718 
E_dihed  =        35.0008 E_impro  =         0.0000 E_vdwl   =        -0.0318 
E_coul   =         0.0000 E_long   =         0.0000 Press    =        -3.0815
------------ Step           1180 ----- CPU =      0.13479 (sec) -------------
TotEng   =       187.2948 KinEng   =        88.8841 Temp     =       301.1999 
PotEng   =        98.4106 E_bond   =        36.7160 E_angle  =        24.5389 
E_dihed  =        37.1876 E_impro  =         0.0000 E_vdwl   =        -0.0318 
E_coul   =         0.0000 E_long   =         0.0000 Press    =         2.4747
------------ Step           1200 ----- CPU =    0.1366689 (sec) -------------
TotEng   =       186.4494 KinEng   =        97.4426 Temp     =       330.2017 
PotEng   =        89.0068 E_bond   =        34.4289 E_angle  =        18.3031 
E_dihed  =        36.3066 E_impro  =         0.0000 E_vdwl   =        -0.0318 
E_coul   =         0.0000 E_long   =         0.0000 Press    =         1.0440
------------ Step           1220 ----- CPU =    0.1401253 (sec) -------------
TotEng   =       185.3527 KinEng   =        94.1238 Temp     =       318.9555 
PotEng   =        91.2289 E_bond   =        28.8432 E_angle  =        26.4214 
E_dihed  =        35.9961 E_impro  =         0.0000 E_vdwl   =        -0.0318 
E_coul   =         0.0000 E_long   =         0.0000 Press    =        -3.1199
------------ Step           1240 ----- CPU =    0.1421748 (sec) -------------
TotEng   =       184.4188 KinEng   =        87.0664 Temp     =       295.0402 
PotEng   =        97.3523 E_bond   =        38.5033 E_angle  =        22.9175 
E_dihed  =        35.9635 E_impro  =         0.0000 E_vdwl   =        -0.0319 
E_coul   =         0.0000 E_long   =         0.0000 Press    =         2.7815
------------ Step           1260 ----- CPU =    0.1444289 (sec) -------------
TotEng   =       183.2493 KinEng   =        90.5505 Temp     =       306.8467 
PotEng   =        92.6988 E_bond   =        31.4804 E_angle  =        26.7868 
E_dihed  =        34.4636 E_impro  =         0.0000 E_vdwl   =        -0.0320 
E_coul   =         0.0000 E_long   =         0.0000 Press    =         1.5103
------------ Step           1280 ----- CPU =     0.145591 (sec) -------------
TotEng   =       182.4334 KinEng   =        91.5557 Temp     =       310.2530 
PotEng   =        90.8777 E_bond   =        33.5208 E_angle  =        26.0497 
E_dihed  =        31.3392 E_impro  =         0.0000 E_vdwl   =        -0.0319 
E_coul   =         0.0000 E_long   =         0.0000 Press    =        -3.3836
------------ Step           1300 ----- CPU =    0.1487956 (sec) -------------
TotEng   =       181.4504 KinEng   =        89.1448 Temp     =       302.0830 
PotEng   =        92.3056 E_bond   =        36.2504 E_angle  =        25.8748 
E_dihed  =        30.2123 E_impro  =         0.0000 E_vdwl   =        -0.0319 
E_coul   =         0.0000 E_long   =         0.0000 Press    =         3.5688
------------ Step           1320 ----- CPU =    0.1518442 (sec) -------------
TotEng   =       180.2761 KinEng   =        92.7848 Temp     =       314.4181 
PotEng   =        87.4913 E_bond   =        34.3290 E_angle  =        21.0240 
E_dihed  =        32.1703 E_impro  =         0.0000 E_vdwl   =        -0.0320 
E_coul   =         0.0000 E_long   =         0.0000 Press    =         2.3426
------------ Step           1340 ----- CPU =    0.1710152 (sec) -------------
TotEng   =       179.2612 KinEng   =        83.3244 Temp     =       282.3596 
PotEng   =        95.9368 E_bond   =        36.1271 E_angle  =        26.3611 
E_dihed  =        33.4807 E_impro  =         0.0000 E_vdwl   =        -0.0321 
E_coul   =         0.0000 E_long   =         0.0000 Press    =        -2.9558
------------ Step           1360 ----- CPU =    0.1724586 (sec) -------------
TotEng   =       178.3738 KinEng   =        92.9076 Temp     =       314.8340 
PotEng   =        85.4663 E_bond   =        31.1711 E_angle  =        21.9002 
E_dihed  =        32.4271 E_impro  =         0.0000 E_vdwl   =        -0.0322 
E_coul   =         0.0000 E_long   =         0.0000 Press    =         4.3493
------------ Step           1380 ----- CPU =    0.1758694 (sec) -------------
TotEng   =       177.5602 KinEng   =        77.7555 Temp     =       263.4885 
PotEng   =        99.8047 E_bond   =        36.8225 E_angle  =        30.9509 
E_dihed  =        32.0632 E_impro  =         0.0000 E_vdwl   =        -0.0320 
E_coul   =         0.0000 E_long   =         0.0000 Press    =         2.0957
------------ Step           1400 ----- CPU =    0.1780091 (sec) -------------
TotEng   =       176.7226 KinEng   =        91.5166 Temp     =       310.1205 
PotEng   =        85.2060 E_bond   =        28.6065 E_angle  =        22.4939 
E_dihed  =        34.1375 E_impro  =         0.0000 E_vdwl   =        -0.0318 
E_coul   =         0.0000 E_long   =         0.0000 Press    =        -3.3242
------------ Step           1420 ----- CPU =    0.1818234 (sec) -------------
TotEng   =       176.2018 KinEng   =        83.0765 Temp     =       281.5196 
PotEng   =        93.1253 E_bond   =        33.6604 E_angle  =        22.8087 
E_dihed  =        36.6881 E_impro  =         0.0000 E_vdwl   =        -0.0319 
E_coul   =         0.0000 E_long   =         0.0000 Press    =         3.8982
------------ Step           1440 ----- CPU =    0.1883339 (sec) -------------
TotEng   =       176.0313 KinEng   =        79.9179 Temp     =       270.8163 
PotEng   =        96.1133 E_bond   =        38.5792 E_angle  =        21.3095 
E_dihed  =        36.2565 E_impro  =         0.0000 E_vdwl   =        -0.0318 
E_coul   =         0.0000 E_long   =         0.0000 Press    =         2.4235
------------ Step           1460 ----- CPU =    0.1916013 (sec) -------------
TotEng   =       175.8833 KinEng   =        89.8939 Temp     =       304.6215 
PotEng   =        85.9894 E_bond   =        30.9968 E_angle  =        23.2196 
E_dihed  =        31.8049 E_impro  =         0.0000 E_vdwl   =        -0.0318 
E_coul   =         0.0000 E_long   =         0.0000 Press    =        -3.8428
------------ Step           1480 ----- CPU =    0.1931108 (sec) -------------
TotEng   =       175.4705 KinEng   =        99.4281 Temp     =       336.9301 
PotEng   =        76.0424 E_bond   =        25.0134 E_angle  =        20.0837 
E_dihed  =        30.9772 E_impro  =         0.0000 E_vdwl   =        -0.0319 
E_coul   =         0.0000 E_long   =         0.0000 Press    =         3.0750
------------ Step           1500 ----- CPU =    0.2004709 (sec) -------------
TotEng   =       174.9182 KinEng   =        85.3710 Temp     =       289.2949 
PotEng   =        89.5473 E_bond   =        36.2905 E_angle  =        19.3332 
E_dihed  =        33.9555 E_impro  =         0.0000 E_vdwl   =        -0.0319 
E_coul   =         0.0000 E_long   =         0.0000 Press    =         3.2504
------------ Step           1520 ----- CPU =     0.203984 (sec) -------------
TotEng   =       173.6681 KinEng   =        79.6559 Temp     =       269.9282 
PotEng   =        94.0123 E_bond   =        32.4729 E_angle  =        26.2565 
E_dihed  =        35.3147 E_impro  =         0.0000 E_vdwl   =        -0.0319 
E_coul   =         0.0000 E_long   =         0.0000 Press    =        -3.9391
------------ Step           1540 ----- CPU =    0.2055717 (sec) -------------
TotEng   =       172.0886 KinEng   =        88.4808 Temp     =       299.8332 
PotEng   =        83.6078 E_bond   =        27.1825 E_angle  =        19.7898 
E_dihed  =        36.6674 E_impro  =         0.0000 E_vdwl   =        -0.0319 
E_coul   =         0.0000 E_long   =         0.0000 Press    =         1.4177
------------ Step           1560 ----- CPU =    0.2069149 (sec) -------------
TotEng   =       170.6848 KinEng   =        81.1130 Temp     =       274.8660 
PotEng   =        89.5717 E_bond   =        29.5888 E_angle  =        23.3224 
E_dihed  =        36.6925 E_impro  =         0.0000 E_vdwl   =        -0.0320 
E_coul   =         0.0000 E_long   =         0.0000 Press    =         3.7226
------------ Step           1580 ----- CPU =    0.2089691 (sec) -------------
TotEng   =       169.5927 KinEng   =        78.3735 Temp     =       265.5827 
PotEng   =        91.2192 E_bond   =        32.3716 E_angle  =        24.9275 
E_dihed  =        33.9523 E_impro  =         0.0000 E_vdwl   =        -0.0322 
E_coul   =         0.0000 E_long   =         0.0000 Press    =        -2.6755
------------ Step           1600 ----- CPU =    0.2103996 (sec) -------------
TotEng   =       168.7958 KinEng   =        77.9062 Temp     =       263.9992 
PotEng   =        90.8896 E_bond   =        35.8061 E_angle  =        23.0881 
E_dihed  =        32.0278 E_impro  =         0.0000 E_vdwl   =        -0.0324 
E_coul   =         0.0000 E_long   =         0.0000 Press    =         0.9158
------------ Step           1620 ----- CPU =    0.2118644 (sec) -------------
TotEng   =       168.3297 KinEng   =        87.1457 Temp     =       295.3090 
PotEng   =        81.1839 E_bond   =        28.6747 E_angle  =        20.0322 
E_dihed  =        32.5095 E_impro  =         0.0000 E_vdwl   =        -0.0325 
E_coul   =         0.0000 E_long   =         0.0000 Press    =         3.8633
------------ Step           1640 ----- CPU =    0.2151274 (sec) -------------
TotEng   =       168.6314 KinEng   =        70.1188 Temp     =       237.6101 
PotEng   =        98.5126 E_bond   =        37.2098 E_angle  =        26.8146 
E_dihed  =        34.5209 E_impro  =         0.0000 E_vdwl   =        -0.0326 
E_coul   =         0.0000 E_long   =         0.0000 Press    =        -2.5073
------------ Step           1660 ----- CPU =    0.2166739 (sec) -------------
TotEng   =       169.5678 KinEng   =        79.7051 Temp     =       270.0951 
PotEng   =        89.8627 E_bond   =        30.1368 E_angle  =        25.6368 
E_dihed  =        34.1219 E_impro  =         0.0000 E_vdwl   =        -0.0327 
E_coul   =         0.0000 E_long   =         0.0000 Press    =         1.0945
------------ Step           1680 ----- CPU =    0.2177076 (sec) -------------
TotEng   =       171.5429 KinEng   =        87.3786 Temp     =       296.0982 
PotEng   =        84.1643 E_bond   =        33.4877 E_angle  =        20.6259 
E_dihed  =        30.0836 E_impro  =         0.0000 E_vdwl   =        -0.0330 
E_coul   =         0.0000 E_long   =         0.0000 Press    =         3.4826
------------ Step           1700 ----- CPU =    0.2199959 (sec) -------------
TotEng   =       173.7420 KinEng   =        83.0941 Temp     =       281.5792 
PotEng   =        90.6479 E_bond   =        32.6263 E_angle  =        28.2092 
E_dihed  =        29.8456 E_impro  =         0.0000 E_vdwl   =        -0.0332 
E_coul   =         0.0000 E_long   =         0.0000 Press    =        -2.2184
------------ Step           1720 ----- CPU =    0.2238006 (sec) -------------
TotEng   =       176.2498 KinEng   =        90.7469 Temp     =       307.5120 
PotEng   =        85.5029 E_bond   =        29.0002 E_angle  =        22.9908 
E_dihed  =        33.5451 E_impro  =         0.0000 E_vdwl   =        -0.0332 
E_coul   =         0.0000 E_long   =         0.0000 Press    =         2.9745
------------ Step           1740 ----- CPU =    0.2321151 (sec) -------------
TotEng   =       179.1754 KinEng   =        81.1100 Temp     =       274.8558 
PotEng   =        98.0654 E_bond   =        39.9548 E_angle  =        24.9812 
E_dihed  =        33.1626 E_impro  =         0.0000 E_vdwl   =        -0.0332 
E_coul   =         0.0000 E_long   =         0.0000 Press    =         4.7200
------------ Step           1760 ----- CPU =    0.2334616 (sec) -------------
TotEng   =       182.0536 KinEng   =       101.5930 Temp     =       344.2660 
PotEng   =        80.4606 E_bond   =        23.8694 E_angle  =        28.5083 
E_dihed  =        28.1161 E_impro  =         0.0000 E_vdwl   =        -0.0331 
E_coul   =         0.0000 E_long   =         0.0000 Press    =        -0.8558
------------ Step           1780 ----- CPU =    0.2348807 (sec) -------------
TotEng   =       184.8473 KinEng   =        94.5674 Temp     =       320.4588 
PotEng   =        90.2798 E_bond   =        38.4299 E_angle  =        25.5611 
E_dihed  =        26.3218 E_impro  =         0.0000 E_vdwl   =        -0.0330 
E_coul   =         0.0000 E_long   =         0.0000 Press    =         3.4438
------------ Step           1800 ----- CPU =    0.2420953 (sec) -------------
TotEng   =       186.7202 KinEng   =        89.1631 Temp     =       302.1451 
PotEng   =        97.5572 E_bond   =        36.8379 E_angle  =        30.1467 
E_dihed  =        30.6054 E_impro  =         0.0000 E_vdwl   =        -0.0328 
E_coul   =         0.0000 E_long   =         0.0000 Press    =         3.3564
------------ Step           1820 ----- CPU =     0.243507 (sec) -------------
TotEng   =       188.2101 KinEng   =        90.4981 Temp     =       306.6691 
PotEng   =        97.7120 E_bond   =        33.4627 E_angle  =        29.5077 
E_dihed  =        34.7741 E_impro  =         0.0000 E_vdwl   =        -0.0325 
E_coul   =         0.0000 E_long   =         0.0000 Press    =        -3.0124
------------ Step           1840 ----- CPU =     0.244617 (sec) -------------
TotEng   =       189.5857 KinEng   =        93.7069 Temp     =       317.5426 
PotEng   =        95.8788 E_bond   =        34.4541 E_angle  =        26.7696 
E_dihed  =        34.6874 E_impro  =         0.0000 E_vdwl   =        -0.0323 
E_coul   =         0.0000 E_long   =         0.0000 Press    =         1.3321
------------ Step           1860 ----- CPU =    0.3397036 (sec) -------------
TotEng   =       190.8699 KinEng   =        92.0028 Temp     =       311.7681 
PotEng   =        98.8671 E_bond   =        40.3488 E_angle  =        25.7792 
E_dihed  =        32.7714 E_impro  =         0.0000 E_vdwl   =        -0.0322 
E_coul   =         0.0000 E_long   =         0.0000 Press    =         2.6509
------------ Step           1880 ----- CPU =    0.3412269 (sec) -------------
TotEng   =       191.2530 KinEng   =        95.6588 Temp     =       324.1571 
PotEng   =        95.5942 E_bond   =        40.4971 E_angle  =        23.8486 
E_dihed  =        31.2807 E_impro  =         0.0000 E_vdwl   =        -0.0321 
E_coul   =         0.0000 E_long   =         0.0000 Press    =        -2.7924
------------ Step           1900 ----- CPU =    0.3424887 (sec) -------------
TotEng   =       190.7444 KinEng   =       101.2169 Temp     =       342.9917 
PotEng   =        89.5275 E_bond   =        34.9611 E_angle  =        23.0999 
E_dihed  =        31.4984 E_impro  =         0.0000 E_vdwl   =        -0.0319 
E_coul   =         0.0000 E_long   =         0.0000 Press    =        -0.2706
------------ Step           1920 ----- CPU =    0.3436737 (sec) -------------
TotEng   =       189.4020 KinEng   =        96.2078 Temp     =       326.0173 
PotEng   =        93.1942 E_bond   =        35.9280 E_angle  =        23.5650 
E_dihed  =        33.7328 E_impro  =         0.0000 E_vdwl   =        -0.0316 
E_coul   =         0.0000 E_long   =         0.0000 Press    =         3.0712
------------ Step           1940 ----- CPU =    0.3449506 (sec) -------------
TotEng   =       187.0980 KinEng   =        94.7514 Temp     =       321.0822 
PotEng   =        92.3466 E_bond   =        35.3104 E_angle  =        21.9462 
E_dihed  =        35.1214 E_impro  =         0.0000 E_vdwl   =        -0.0314 
E_coul   =         0.0000 E_long   =         0.0000 Press    =        -2.9895
------------ Step           1960 ----- CPU =    0.3532108 (sec) -------------
TotEng   =       183.8636 KinEng   =        93.7953 Temp     =       317.8422 
PotEng   =        90.0683 E_bond   =        32.5852 E_angle  =        23.8793 
E_dihed  =        33.6352 E_impro  =         0.0000 E_vdwl   =        -0.0314 
E_coul   =         0.0000 E_long   =         0.0000 Press    =        -2.6352
------------ Step           1980 ----- CPU =    0.3549155 (sec) -------------
TotEng   =       179.8802 KinEng   =        97.0928 Temp     =       329.0164 
PotEng   =        82.7874 E_bond   =        25.8665 E_angle  =        24.9887 
E_dihed  =        31.9634 E_impro  =         0.0000 E_vdwl   =        -0.0311 
E_coul   =         0.0000 E_long   =         0.0000 Press    =         2.5062
------------ Step           2000 ----- CPU =    0.3563118 (sec) -------------
TotEng   =       175.9139 KinEng   =        83.8449 Temp     =       284.1236 
PotEng   =        92.0690 E_bond   =        38.2967 E_angle  =        23.1030 
E_dihed  =        30.7002 E_impro  =         0.0000 E_vdwl   =        -0.0309 
E_coul   =         0.0000 E_long   =         0.0000 Press    =        -4.5762
------------ Step           2020 ----- CPU =    0.3575623 (sec) -------------
TotEng   =       172.6906 KinEng   =        83.6299 Temp     =       283.3951 
PotEng   =        89.0606 E_bond   =        36.8044 E_angle  =        23.6733 
E_dihed  =        28.6137 E_impro  =         0.0000 E_vdwl   =        -0.0307 
E_coul   =         0.0000 E_long   =         0.0000 Press    =        -4.3485
------------ Step           2040 ----- CPU =    0.3591597 (sec) -------------
TotEng   =       170.3350 KinEng   =        88.5542 Temp     =       300.0817 
PotEng   =        81.7809 E_bond   =        31.2748 E_angle  =        21.5624 
E_dihed  =        28.9741 E_impro  =         0.0000 E_vdwl   =        -0.0305 
E_coul   =         0.0000 E_long   =         0.0000 Press    =         2.6939
------------ Step           2060 ----- CPU =    0.3664244 (sec) -------------
TotEng   =       168.6198 KinEng   =        78.8044 Temp     =       267.0429 
PotEng   =        89.8154 E_bond   =        36.4914 E_angle  =        22.4739 
E_dihed  =        30.8804 E_impro  =         0.0000 E_vdwl   =        -0.0304 
E_coul   =         0.0000 E_long   =         0.0000 Press    =        -4.5446
------------ Step           2080 ----- CPU =    0.3676732 (sec) -------------
TotEng   =       167.7765 KinEng   =        84.0453 Temp     =       284.8025 
PotEng   =        83.7312 E_bond   =        33.6775 E_angle  =        19.8870 
E_dihed  =        30.1972 E_impro  =         0.0000 E_vdwl   =        -0.0304 
E_coul   =         0.0000 E_long   =         0.0000 Press    =        -4.1724
------------ Step           2100 ----- CPU =    0.3691784 (sec) -------------
TotEng   =       167.7627 KinEng   =        75.8435 Temp     =       257.0093 
PotEng   =        91.9192 E_bond   =        37.8257 E_angle  =        24.3912 
E_dihed  =        29.7329 E_impro  =         0.0000 E_vdwl   =        -0.0305 
E_coul   =         0.0000 E_long   =         0.0000 Press    =         2.6449
------------ Step           2120 ----- CPU =    0.3709764 (sec) -------------
TotEng   =       168.0474 KinEng   =        76.6197 Temp     =       259.6397 
PotEng   =        91.4277 E_bond   =        39.6566 E_angle  =        20.6314 
E_dihed  =        31.1703 E_impro  =         0.0000 E_vdwl   =        -0.0305 
E_coul   =         0.0000 E_long   =         0.0000 Press    =        -4.1097
------------ Step           2140 ----- CPU =    0.3732381 (sec) -------------
TotEng   =       168.8352 KinEng   =        79.5035 Temp     =       269.4119 
PotEng   =        89.3317 E_bond   =        27.9717 E_angle  =        28.7812 
E_dihed  =        32.6093 E_impro  =         0.0000 E_vdwl   =        -0.0306 
E_coul   =         0.0000 E_long   =         0.0000 Press    =        -3.9930
------------ Step           2160 ----- CPU =    0.3745583 (sec) -------------
TotEng   =       170.3671 KinEng   =        83.8935 Temp     =       284.2881 
PotEng   =        86.4736 E_bond   =        31.3505 E_angle  =        24.2806 
E_dihed  =        30.8731 E_impro  =         0.0000 E_vdwl   =        -0.0306 
E_coul   =         0.0000 E_long   =         0.0000 Press    =         2.6929
------------ Step           2180 ----- CPU =    0.3781161 (sec) -------------
TotEng   =       172.0107 KinEng   =        86.3308 Temp     =       292.5475 
PotEng   =        85.6799 E_bond   =        37.5023 E_angle  =        21.6671 
E_dihed  =        26.5410 E_impro  =         0.0000 E_vdwl   =        -0.0305 
E_coul   =         0.0000 E_long   =         0.0000 Press    =        -4.1885
------------ Step           2200 ----- CPU =    0.3807804 (sec) -------------
TotEng   =       173.2308 KinEng   =        95.4044 Temp     =       323.2949 
PotEng   =        77.8264 E_bond   =        30.8922 E_angle  =        21.0615 
E_dihed  =        25.9032 E_impro  =         0.0000 E_vdwl   =        -0.0306 
E_coul   =         0.0000 E_long   =         0.0000 Press    =        -3.9302
------------ Step           2220 ----- CPU =    0.3821974 (sec) -------------
TotEng   =       174.3031 KinEng   =        92.1643 Temp     =       312.3152 
PotEng   =        82.1388 E_bond   =        28.9064 E_angle  =        24.1019 
E_dihed  =        29.1613 E_impro  =         0.0000 E_vdwl   =        -0.0307 
E_coul   =         0.0000 E_long   =         0.0000 Press    =         3.2655
------------ Step           2240 ----- CPU =    0.3939145 (sec) -------------
TotEng   =       175.2353 KinEng   =        87.7511 Temp     =       297.3603 
PotEng   =        87.4842 E_bond   =        31.8149 E_angle  =        24.9194 
E_dihed  =        30.7809 E_impro  =         0.0000 E_vdwl   =        -0.0310 
E_coul   =         0.0000 E_long   =         0.0000 Press    =        -4.6553
------------ Step           2260 ----- CPU =    0.4015849 (sec) -------------
TotEng   =       176.2333 KinEng   =        86.5083 Temp     =       293.1490 
PotEng   =        89.7249 E_bond   =        40.1696 E_angle  =        22.2737 
E_dihed  =        27.3132 E_impro  =         0.0000 E_vdwl   =        -0.0315 
E_coul   =         0.0000 E_long   =         0.0000 Press    =        -4.7404
------------ Step           2280 ----- CPU =    0.4035589 (sec) -------------
TotEng   =       176.8927 KinEng   =        96.3603 Temp     =       326.5342 
PotEng   =        80.5324 E_bond   =        32.1615 E_angle  =        25.0098 
E_dihed  =        23.3932 E_impro  =         0.0000 E_vdwl   =        -0.0321 
E_coul   =         0.0000 E_long   =         0.0000 Press    =         6.2320
------------ Step           2300 ----- CPU =    0.4045583 (sec) -------------
TotEng   =       177.0694 KinEng   =       101.0257 Temp     =       342.3438 
PotEng   =        76.0436 E_bond   =        32.4235 E_angle  =        20.1006 
E_dihed  =        23.5519 E_impro  =         0.0000 E_vdwl   =        -0.0325 
E_coul   =         0.0000 E_long   =         0.0000 Press    =        -2.1261
------------ Step           2320 ----- CPU =    0.4093492 (sec) -------------
TotEng   =       176.5729 KinEng   =        88.1171 Temp     =       298.6008 
PotEng   =        88.4558 E_bond   =        36.7861 E_angle  =        24.2770 
E_dihed  =        27.4256 E_impro  =         0.0000 E_vdwl   =        -0.0329 
E_coul   =         0.0000 E_long   =         0.0000 Press    =        -5.1663
------------ Step           2340 ----- CPU =    0.4144957 (sec) -------------
TotEng   =       175.7243 KinEng   =        79.9499 Temp     =       270.9246 
PotEng   =        95.7745 E_bond   =        41.0188 E_angle  =        25.9837 
E_dihed  =        28.8051 E_impro  =         0.0000 E_vdwl   =        -0.0332 
E_coul   =         0.0000 E_long   =         0.0000 Press    =         6.4773
------------ Step           2360 ----- CPU =    0.4166038 (sec) -------------
TotEng   =       174.7324 KinEng   =        94.4821 Temp     =       320.1697 
PotEng   =        80.2503 E_bond   =        31.9682 E_angle  =        21.9419 
E_dihed  =        26.3734 E_impro  =         0.0000 E_vdwl   =        -0.0332 
E_coul   =         0.0000 E_long   =         0.0000 Press    =        -1.4725
------------ Step           2380 ----- CPU =    0.4191868 (sec) -------------
TotEng   =       173.2632 KinEng   =        96.2629 Temp     =       326.2042 
PotEng   =        77.0003 E_bond   =        25.9271 E_angle  =        25.9706 
E_dihed  =        25.1358 E_impro  =         0.0000 E_vdwl   =        -0.0332 
E_coul   =         0.0000 E_long   =         0.0000 Press    =        -4.5014
------------ Step           2400 ----- CPU =    0.4206282 (sec) -------------
TotEng   =       171.5108 KinEng   =        83.9473 Temp     =       284.4706 
PotEng   =        87.5635 E_bond   =        39.6410 E_angle  =        20.7057 
E_dihed  =        27.2502 E_impro  =         0.0000 E_vdwl   =        -0.0334 
E_coul   =         0.0000 E_long   =         0.0000 Press    =         7.5637
------------ Step           2420 ----- CPU =    0.4228246 (sec) -------------
TotEng   =       169.4375 KinEng   =        78.5060 Temp     =       266.0316 
PotEng   =        90.9315 E_bond   =        36.2972 E_angle  =        26.4406 
E_dihed  =        28.2272 E_impro  =         0.0000 E_vdwl   =        -0.0335 
E_coul   =         0.0000 E_long   =         0.0000 Press    =         0.7887
------------ Step           2440 ----- CPU =    0.4257551 (sec) -------------
TotEng   =       167.0760 KinEng   =        89.0114 Temp     =       301.6311 
PotEng   =        78.0646 E_bond   =        24.1170 E_angle  =        26.2128 
E_dihed  =        27.7683 E_impro  =         0.0000 E_vdwl   =        -0.0335 
E_coul   =         0.0000 E_long   =         0.0000 Press    =        -2.8941
------------ Step           2460 ----- CPU =    0.4336516 (sec) -------------
TotEng   =       164.4521 KinEng   =        84.3469 Temp     =       285.8248 
PotEng   =        80.1052 E_bond   =        30.7307 E_angle  =        20.6453 
E_dihed  =        28.7628 E_impro  =         0.0000 E_vdwl   =        -0.0336 
E_coul   =         0.0000 E_long   =         0.0000 Press    =         7.1855
------------ Step           2480 ----- CPU =    0.4347468 (sec) -------------
TotEng   =       161.3048 KinEng   =        79.8277 Temp     =       270.5105 
PotEng   =        81.4771 E_bond   =        25.6996 E_angle  =        26.1231 
E_dihed  =        29.6882 E_impro  =         0.0000 E_vdwl   =        -0.0337 
E_coul   =         0.0000 E_long   =         0.0000 Press    =         0.6678
------------ Step           2500 ----- CPU =    0.4373993 (sec) -------------
TotEng   =       158.2108 KinEng   =        73.0650 Temp     =       247.5938 
PotEng   =        85.1459 E_bond   =        33.1925 E_angle  =        25.0463 
E_dihed  =        26.9410 E_impro  =         0.0000 E_vdwl   =        -0.0339 
E_coul   =         0.0000 E_long   =         0.0000 Press    =        -3.3758
------------ Step           2520 ----- CPU =    0.4541594 (sec) -------------
TotEng   =       155.1110 KinEng   =        79.3010 Temp     =       268.7257 
PotEng   =        75.8101 E_bond   =        29.8535 E_angle  =        22.7889 
E_dihed  =        23.2015 E_impro  =         0.0000 E_vdwl   =        -0.0339 
E_coul   =         0.0000 E_long   =         0.0000 Press    =         6.6336
------------ Step           2540 ----- CPU =    0.4831523 (sec) -------------
TotEng   =       152.3804 KinEng   =        80.4724 Temp     =       272.6953 
PotEng   =        71.9079 E_bond   =        26.7769 E_angle  =        21.8201 
E_dihed  =        23.3448 E_impro  =         0.0000 E_vdwl   =        -0.0338 
E_coul   =         0.0000 E_long   =         0.0000 Press    =         1.7569
------------ Step           2560 ----- CPU =    0.4910417 (sec) -------------
TotEng   =       150.3943 KinEng   =        72.0518 Temp     =       244.1606 
PotEng   =        78.3425 E_bond   =        33.0361 E_angle  =        20.1620 
E_dihed  =        25.1781 E_impro  =         0.0000 E_vdwl   =        -0.0338 
E_coul   =         0.0000 E_long   =         0.0000 Press    =        -2.3250
------------ Step           2580 ----- CPU =    0.4950174 (sec) -------------
TotEng   =       149.2676 KinEng   =        68.0910 Temp     =       230.7385 
PotEng   =        81.1766 E_bond   =        36.7579 E_angle  =        17.5816 
E_dihed  =        26.8708 E_impro  =         0.0000 E_vdwl   =        -0.0337 
E_coul   =         0.0000 E_long   =         0.0000 Press    =         6.5095
------------ Step           2600 ----- CPU =     0.612159 (sec) -------------
TotEng   =       148.7962 KinEng   =        82.0554 Temp     =       278.0594 
PotEng   =        66.7408 E_bond   =        20.9650 E_angle  =        20.2367 
E_dihed  =        25.5724 E_impro  =         0.0000 E_vdwl   =        -0.0333 
E_coul   =         0.0000 E_long   =         0.0000 Press    =         1.8436
------------ Step           2620 ----- CPU =    0.6376947 (sec) -------------
TotEng   =       149.5166 KinEng   =        74.0978 Temp     =       251.0938 
PotEng   =        75.4188 E_bond   =        29.5008 E_angle  =        21.8199 
E_dihed  =        24.1313 E_impro  =         0.0000 E_vdwl   =        -0.0331 
E_coul   =         0.0000 E_long   =         0.0000 Press    =        -3.6755
------------ Step           2640 ----- CPU =    0.6394854 (sec) -------------
TotEng   =       151.1643 KinEng   =        71.8845 Temp     =       243.5935 
PotEng   =        79.2798 E_bond   =        30.0452 E_angle  =        24.8154 
E_dihed  =        24.4524 E_impro  =         0.0000 E_vdwl   =        -0.0333 
E_coul   =         0.0000 E_long   =         0.0000 Press    =         5.3115
------------ Step           2660 ----- CPU =    0.6418484 (sec) -------------
TotEng   =       154.2785 KinEng   =        84.8423 Temp     =       287.5035 
PotEng   =        69.4362 E_bond   =        23.7589 E_angle  =        20.6382 
E_dihed  =        25.0723 E_impro  =         0.0000 E_vdwl   =        -0.0332 
E_coul   =         0.0000 E_long   =         0.0000 Press    =        -0.0086
------------ Step           2680 ----- CPU =    0.6455474 (sec) -------------
TotEng   =       158.9768 KinEng   =        83.1041 Temp     =       281.6130 
PotEng   =        75.8727 E_bond   =        31.0749 E_angle  =        19.6751 
E_dihed  =        25.1559 E_impro  =         0.0000 E_vdwl   =        -0.0331 
E_coul   =         0.0000 E_long   =         0.0000 Press    =        -4.8995
------------ Step           2700 ----- CPU =    0.6477678 (sec) -------------
TotEng   =       163.8690 KinEng   =        84.9858 Temp     =       287.9896 
PotEng   =        78.8832 E_bond   =        28.2458 E_angle  =        23.8682 
E_dihed  =        26.8023 E_impro  =         0.0000 E_vdwl   =        -0.0330 
E_coul   =         0.0000 E_long   =         0.0000 Press    =         5.1591
------------ Step           2720 ----- CPU =    0.6527725 (sec) -------------
TotEng   =       168.0050 KinEng   =        88.1505 Temp     =       298.7139 
PotEng   =        79.8544 E_bond   =        29.9454 E_angle  =        19.5218 
E_dihed  =        30.4202 E_impro  =         0.0000 E_vdwl   =        -0.0330 
E_coul   =         0.0000 E_long   =         0.0000 Press    =        -1.7444
------------ Step           2740 ----- CPU =     0.653945 (sec) -------------
TotEng   =       171.0794 KinEng   =        78.6402 Temp     =       266.4864 
PotEng   =        92.4392 E_bond   =        37.4258 E_angle  =        23.7702 
E_dihed  =        31.2763 E_impro  =         0.0000 E_vdwl   =        -0.0330 
E_coul   =         0.0000 E_long   =         0.0000 Press    =        -6.1705
------------ Step           2760 ----- CPU =    0.6571321 (sec) -------------
TotEng   =       173.2071 KinEng   =        90.0598 Temp     =       305.1837 
PotEng   =        83.1473 E_bond   =        29.1312 E_angle  =        24.7258 
E_dihed  =        29.3233 E_impro  =         0.0000 E_vdwl   =        -0.0330 
E_coul   =         0.0000 E_long   =         0.0000 Press    =         4.0314
------------ Step           2780 ----- CPU =      0.65868 (sec) -------------
TotEng   =       174.8247 KinEng   =        91.5431 Temp     =       310.2102 
PotEng   =        83.2816 E_bond   =        31.7531 E_angle  =        24.3572 
E_dihed  =        27.2041 E_impro  =         0.0000 E_vdwl   =        -0.0328 
E_coul   =         0.0000 E_long   =         0.0000 Press    =        -2.4002
------------ Step           2800 ----- CPU =    0.6598722 (sec) -------------
TotEng   =       176.0244 KinEng   =        87.2103 Temp     =       295.5277 
PotEng   =        88.8141 E_bond   =        37.3173 E_angle  =        23.8665 
E_dihed  =        27.6629 E_impro  =         0.0000 E_vdwl   =        -0.0326 
E_coul   =         0.0000 E_long   =         0.0000 Press    =        -6.2646
------------ Step           2820 ----- CPU =    0.6613777 (sec) -------------
TotEng   =       176.8828 KinEng   =        91.0203 Temp     =       308.4387 
PotEng   =        85.8625 E_bond   =        30.3795 E_angle  =        25.8239 
E_dihed  =        29.6916 E_impro  =         0.0000 E_vdwl   =        -0.0326 
E_coul   =         0.0000 E_long   =         0.0000 Press    =         2.8384
------------ Step           2840 ----- CPU =    0.6662902 (sec) -------------
TotEng   =       177.3702 KinEng   =        92.1154 Temp     =       312.1494 
PotEng   =        85.2549 E_bond   =        31.5310 E_angle  =        24.2170 
E_dihed  =        29.5397 E_impro  =         0.0000 E_vdwl   =        -0.0329 
E_coul   =         0.0000 E_long   =         0.0000 Press    =        -2.0632
------------ Step           2860 ----- CPU =    0.6690019 (sec) -------------
TotEng   =       177.8154 KinEng   =        86.8110 Temp     =       294.1746 
PotEng   =        91.0044 E_bond   =        41.2357 E_angle  =        20.1586 
E_dihed  =        29.6432 E_impro  =         0.0000 E_vdwl   =        -0.0331 
E_coul   =         0.0000 E_long   =         0.0000 Press    =        -6.9660
------------ Step           2880 ----- CPU =    0.6701576 (sec) -------------
TotEng   =       177.9196 KinEng   =        92.1405 Temp     =       312.2346 
PotEng   =        85.7791 E_bond   =        30.6603 E_angle  =        23.8387 
E_dihed  =        31.3133 E_impro  =         0.0000 E_vdwl   =        -0.0332 
E_coul   =         0.0000 E_long   =         0.0000 Press    =         1.2440
------------ Step           2900 ----- CPU =    0.6730076 (sec) -------------
TotEng   =       177.8314 KinEng   =        92.2348 Temp     =       312.5543 
PotEng   =        85.5965 E_bond   =        34.0046 E_angle  =        20.5046 
E_dihed  =        31.1205 E_impro  =         0.0000 E_vdwl   =        -0.0332 
E_coul   =         0.0000 E_long   =         0.0000 Press    =        -0.3370
------------ Step           2920 ----- CPU =    0.6746051 (sec) -------------
TotEng   =       177.6023 KinEng   =        88.6326 Temp     =       300.3475 
PotEng   =        88.9697 E_bond   =        37.2326 E_angle  =        22.9060 
E_dihed  =        28.8642 E_impro  =         0.0000 E_vdwl   =        -0.0332 
E_coul   =         0.0000 E_long   =         0.0000 Press    =        -5.7285
------------ Step           2940 ----- CPU =    0.6760015 (sec) -------------
TotEng   =       177.1915 KinEng   =        89.9145 Temp     =       304.6915 
PotEng   =        87.2770 E_bond   =        31.4955 E_angle  =        24.4078 
E_dihed  =        31.4068 E_impro  =         0.0000 E_vdwl   =        -0.0332 
E_coul   =         0.0000 E_long   =         0.0000 Press    =         0.9481
------------ Step           2960 ----- CPU =    0.6771325 (sec) -------------
TotEng   =       176.4846 KinEng   =        88.6104 Temp     =       300.2723 
PotEng   =        87.8742 E_bond   =        25.6398 E_angle  =        26.1518 
E_dihed  =        36.1156 E_impro  =         0.0000 E_vdwl   =        -0.0330 
E_coul   =         0.0000 E_long   =         0.0000 Press    =         0.7754
------------ Step           2980 ----- CPU =    0.6825334 (sec) -------------
TotEng   =       176.4092 KinEng   =        77.5778 Temp     =       262.8862 
PotEng   =        98.8315 E_bond   =        37.8418 E_angle  =        26.1902 
E_dihed  =        34.8322 E_impro  =         0.0000 E_vdwl   =        -0.0327 
E_coul   =         0.0000 E_long   =         0.0000 Press    =        -4.7342
------------ Step           3000 ----- CPU =    0.6906225 (sec) -------------
TotEng   =       176.7060 KinEng   =        90.8612 Temp     =       307.8994 
PotEng   =        85.8449 E_bond   =        31.1563 E_angle  =        24.4557 
E_dihed  =        30.2655 E_impro  =         0.0000 E_vdwl   =        -0.0326 
E_coul   =         0.0000 E_long   =         0.0000 Press    =         1.9047
------------ Step           3020 ----- CPU =    0.6931483 (sec) -------------
TotEng   =       177.0985 KinEng   =        96.2385 Temp     =       326.1216 
PotEng   =        80.8599 E_bond   =        30.9094 E_angle  =        21.8146 
E_dihed  =        28.1684 E_impro  =         0.0000 E_vdwl   =        -0.0326 
E_coul   =         0.0000 E_long   =         0.0000 Press    =         1.5778
------------ Step           3040 ----- CPU =    0.6943258 (sec) -------------
TotEng   =       177.0796 KinEng   =        94.8576 Temp     =       321.4420 
PotEng   =        82.2221 E_bond   =        30.9299 E_angle  =        21.3302 
E_dihed  =        29.9945 E_impro  =         0.0000 E_vdwl   =        -0.0326 
E_coul   =         0.0000 E_long   =         0.0000 Press    =        -3.9874
------------ Step           3060 ----- CPU =    0.6955199 (sec) -------------
TotEng   =       176.8991 KinEng   =        82.9959 Temp     =       281.2464 
PotEng   =        93.9032 E_bond   =        39.1127 E_angle  =        22.5543 
E_dihed  =        32.2691 E_impro  =         0.0000 E_vdwl   =        -0.0328 
E_coul   =         0.0000 E_long   =         0.0000 Press    =         1.8207
------------ Step           3080 ----- CPU =    0.6997099 (sec) -------------
TotEng   =       176.3480 KinEng   =        93.1234 Temp     =       315.5653 
PotEng   =        83.2246 E_bond   =        29.4783 E_angle  =        21.4770 
E_dihed  =        32.3023 E_impro  =         0.0000 E_vdwl   =        -0.0330 
E_coul   =         0.0000 E_long   =         0.0000 Press    =         0.9374
------------ Step           3100 ----- CPU =    0.7020766 (sec) -------------
TotEng   =       175.5303 KinEng   =        89.7399 Temp     =       304.0999 
PotEng   =        85.7904 E_bond   =        33.6235 E_angle  =        22.2609 
E_dihed  =        29.9393 E_impro  =         0.0000 E_vdwl   =        -0.0333 
E_coul   =         0.0000 E_long   =         0.0000 Press    =        -2.9331
------------ Step           3120 ----- CPU =    0.7042061 (sec) -------------
TotEng   =       174.1718 KinEng   =        89.3873 Temp     =       302.9049 
PotEng   =        84.7845 E_bond   =        35.2206 E_angle  =        22.9088 
E_dihed  =        26.6888 E_impro  =         0.0000 E_vdwl   =        -0.0336 
E_coul   =         0.0000 E_long   =         0.0000 Press    =         3.4374
------------ Step           3140 ----- CPU =    0.7067781 (sec) -------------
TotEng   =       172.4840 KinEng   =        85.9420 Temp     =       291.2298 
PotEng   =        86.5420 E_bond   =        34.9349 E_angle  =        25.2356 
E_dihed  =        26.4052 E_impro  =         0.0000 E_vdwl   =        -0.0337 
E_coul   =         0.0000 E_long   =         0.0000 Press    =         1.6597
------------ Step           3160 ----- CPU =    0.7090582 (sec) -------------
TotEng   =       170.3530 KinEng   =        85.0102 Temp     =       288.0724 
PotEng   =        85.3428 E_bond   =        32.7733 E_angle  =        22.4043 
E_dihed  =        30.1989 E_impro  =         0.0000 E_vdwl   =        -0.0337 
E_coul   =         0.0000 E_long   =         0.0000 Press    =        -1.8000
------------ Step           3180 ----- CPU =    0.7146945 (sec) -------------
TotEng   =       168.2272 KinEng   =        83.9079 Temp     =       284.3371 
PotEng   =        84.3192 E_bond   =        33.5982 E_angle  =        18.5194 
E_dihed  =        32.2356 E_impro  =         0.0000 E_vdwl   =        -0.0339 
E_coul   =         0.0000 E_long   =         0.0000 Press    =         3.0314
------------ Step           3200 ----- CPU =    0.7160358 (sec) -------------
TotEng   =       166.2100 KinEng   =        82.7198 Temp     =       280.3109 
PotEng   =        83.4902 E_bond   =        25.9349 E_angle  =        25.6109 
E_dihed  =        31.9787 E_impro  =         0.0000 E_vdwl   =        -0.0344 
E_coul   =         0.0000 E_long   =         0.0000 Press    =         0.6138
------------ Step           3220 ----- CPU =    0.7194724 (sec) -------------
TotEng   =       164.7734 KinEng   =        79.8969 Temp     =       270.7448 
PotEng   =        84.8765 E_bond   =        31.8214 E_angle  =        24.2495 
E_dihed  =        28.8401 E_impro  =         0.0000 E_vdwl   =        -0.0345 
E_coul   =         0.0000 E_long   =         0.0000 Press    =        -2.2040
------------ Step           3240 ----- CPU =    0.7206986 (sec) -------------
TotEng   =       163.4609 KinEng   =        86.7184 Temp     =       293.8608 
PotEng   =        76.7426 E_bond   =        30.0049 E_angle  =        20.9591 
E_dihed  =        25.8128 E_impro  =         0.0000 E_vdwl   =        -0.0342 
E_coul   =         0.0000 E_long   =         0.0000 Press    =         3.3409
------------ Step           3260 ----- CPU =     0.723082 (sec) -------------
TotEng   =       162.3092 KinEng   =        86.3361 Temp     =       292.5654 
PotEng   =        75.9731 E_bond   =        28.0631 E_angle  =        22.4413 
E_dihed  =        25.5025 E_impro  =         0.0000 E_vdwl   =        -0.0338 
E_coul   =         0.0000 E_long   =         0.0000 Press    =         1.9680
------------ Step           3280 ----- CPU =    0.7281739 (sec) -------------
TotEng   =       161.1825 KinEng   =        85.6860 Temp     =       290.3623 
PotEng   =        75.4965 E_bond   =        25.5231 E_angle  =        21.1853 
E_dihed  =        28.8216 E_impro  =         0.0000 E_vdwl   =        -0.0335 
E_coul   =         0.0000 E_long   =         0.0000 Press    =        -1.6435
------------ Step           3300 ----- CPU =    0.7302122 (sec) -------------
TotEng   =       160.5100 KinEng   =        75.5926 Temp     =       256.1592 
PotEng   =        84.9174 E_bond   =        32.4129 E_angle  =        23.5099 
E_dihed  =        29.0281 E_impro  =         0.0000 E_vdwl   =        -0.0335 
E_coul   =         0.0000 E_long   =         0.0000 Press    =         2.8913
------------ Step           3320 ----- CPU =    0.7363251 (sec) -------------
TotEng   =       160.3162 KinEng   =        78.2992 Temp     =       265.3310 
PotEng   =        82.0170 E_bond   =        31.7848 E_angle  =        22.7669 
E_dihed  =        27.4987 E_impro  =         0.0000 E_vdwl   =        -0.0334 
E_coul   =         0.0000 E_long   =         0.0000 Press    =         1.2589
------------ Step           3340 ----- CPU =    0.7386348 (sec) -------------
TotEng   =       160.9031 KinEng   =        81.5815 Temp     =       276.4534 
PotEng   =        79.3216 E_bond   =        30.4796 E_angle  =        19.8021 
E_dihed  =        29.0732 E_impro  =         0.0000 E_vdwl   =        -0.0332 
E_coul   =         0.0000 E_long   =         0.0000 Press    =        -2.9833
------------ Step           3360 ----- CPU =    0.7414825 (sec) -------------
TotEng   =       162.2379 KinEng   =        82.0948 Temp     =       278.1928 
PotEng   =        80.1431 E_bond   =        29.2630 E_angle  =        20.0791 
E_dihed  =        30.8343 E_impro  =         0.0000 E_vdwl   =        -0.0332 
E_coul   =         0.0000 E_long   =         0.0000 Press    =         2.2934
------------ Step           3380 ----- CPU =    0.7441487 (sec) -------------
TotEng   =       164.6492 KinEng   =        75.1192 Temp     =       254.5548 
PotEng   =        89.5300 E_bond   =        33.2342 E_angle  =        25.4310 
E_dihed  =        30.8982 E_impro  =         0.0000 E_vdwl   =        -0.0334 
E_coul   =         0.0000 E_long   =         0.0000 Press    =         1.2366
------------ Step           3400 ----- CPU =    0.7457577 (sec) -------------
TotEng   =       168.2929 KinEng   =        84.4287 Temp     =       286.1018 
PotEng   =        83.8642 E_bond   =        33.8890 E_angle  =        19.2298 
E_dihed  =        30.7789 E_impro  =         0.0000 E_vdwl   =        -0.0335 
E_coul   =         0.0000 E_long   =         0.0000 Press    =        -3.6957
------------ Step           3420 ----- CPU =    0.7475926 (sec) -------------
TotEng   =       172.7555 KinEng   =        88.3404 Temp     =       299.3573 
PotEng   =        84.4151 E_bond   =        29.2950 E_angle  =        25.3668 
E_dihed  =        29.7867 E_impro  =         0.0000 E_vdwl   =        -0.0334 
E_coul   =         0.0000 E_long   =         0.0000 Press    =         1.2140
------------ Step           3440 ----- CPU =    0.7493258 (sec) -------------
TotEng   =       177.1434 KinEng   =       100.1896 Temp     =       339.5105 
PotEng   =        76.9538 E_bond   =        25.9170 E_angle  =        22.1771 
E_dihed  =        28.8931 E_impro  =         0.0000 E_vdwl   =        -0.0334 
E_coul   =         0.0000 E_long   =         0.0000 Press    =         0.8636
------------ Step           3460 ----- CPU =    0.7527551 (sec) -------------
TotEng   =       180.4769 KinEng   =        78.3811 Temp     =       265.6085 
PotEng   =       102.0957 E_bond   =        41.7337 E_angle  =        27.4364 
E_dihed  =        32.9592 E_impro  =         0.0000 E_vdwl   =        -0.0336 
E_coul   =         0.0000 E_long   =         0.0000 Press    =        -4.7814
------------ Step           3480 ----- CPU =    0.7574456 (sec) -------------
TotEng   =       182.8927 KinEng   =        89.2803 Temp     =       302.5424 
PotEng   =        93.6124 E_bond   =        30.4560 E_angle  =        26.9675 
E_dihed  =        36.2229 E_impro  =         0.0000 E_vdwl   =        -0.0339 
E_coul   =         0.0000 E_long   =         0.0000 Press    =         0.2173
------------ Step           3500 ----- CPU =    0.7588555 (sec) -------------
TotEng   =       185.0225 KinEng   =        96.4984 Temp     =       327.0022 
PotEng   =        88.5241 E_bond   =        28.5398 E_angle  =        26.0809 
E_dihed  =        33.9374 E_impro  =         0.0000 E_vdwl   =        -0.0339 
E_coul   =         0.0000 E_long   =         0.0000 Press    =         1.3205
------------ Step           3520 ----- CPU =    0.7647056 (sec) -------------
TotEng   =       186.6657 KinEng   =        93.9348 Temp     =       318.3150 
PotEng   =        92.7309 E_bond   =        40.8243 E_angle  =        23.5437 
E_dihed  =        28.3967 E_impro  =         0.0000 E_vdwl   =        -0.0338 
[...]
PotEng   =        91.7149 E_bond   =        28.0871 E_angle  =        33.5191 
E_dihed  =        49.1518 E_impro  =         0.0000 E_vdwl   =       -19.0430 
E_coul   =         0.0000 E_long   =         0.0000 Press    =        -4.4911
------------ Step          49160 ----- CPU =     6.054166 (sec) -------------
TotEng   =       174.5201 KinEng   =        89.7171 Temp     =       304.0224 
PotEng   =        84.8030 E_bond   =        26.6683 E_angle  =        27.8828 
E_dihed  =        50.3808 E_impro  =         0.0000 E_vdwl   =       -20.1289 
E_coul   =         0.0000 E_long   =         0.0000 Press    =        -0.7305
------------ Step          49180 ----- CPU =     6.056011 (sec) -------------
TotEng   =       172.3516 KinEng   =        90.4935 Temp     =       306.6534 
PotEng   =        81.8581 E_bond   =        30.7605 E_angle  =        24.0673 
E_dihed  =        46.3998 E_impro  =         0.0000 E_vdwl   =       -19.3695 
E_coul   =         0.0000 E_long   =         0.0000 Press    =        -1.0839
------------ Step          49200 ----- CPU =     6.058225 (sec) -------------
TotEng   =       170.7093 KinEng   =        84.6579 Temp     =       286.8785 
PotEng   =        86.0514 E_bond   =        26.7307 E_angle  =        32.0363 
E_dihed  =        45.9815 E_impro  =         0.0000 E_vdwl   =       -18.6970 
E_coul   =         0.0000 E_long   =         0.0000 Press    =        -0.8933
------------ Step          49220 ----- CPU =     6.060326 (sec) -------------
TotEng   =       169.7586 KinEng   =        97.6851 Temp     =       331.0236 
PotEng   =        72.0734 E_bond   =        24.2507 E_angle  =        22.7306 
E_dihed  =        44.2116 E_impro  =         0.0000 E_vdwl   =       -19.1195 
E_coul   =         0.0000 E_long   =         0.0000 Press    =         4.4725
------------ Step          49240 ----- CPU =     6.062488 (sec) -------------
TotEng   =       169.1277 KinEng   =        81.4185 Temp     =       275.9012 
PotEng   =        87.7092 E_bond   =        25.7489 E_angle  =        32.5706 
E_dihed  =        45.6077 E_impro  =         0.0000 E_vdwl   =       -16.2180 
E_coul   =         0.0000 E_long   =         0.0000 Press    =         1.2938
------------ Step          49260 ----- CPU =     6.064376 (sec) -------------
TotEng   =       168.6931 KinEng   =        89.1246 Temp     =       302.0146 
PotEng   =        79.5686 E_bond   =        25.9875 E_angle  =        30.4469 
E_dihed  =        43.1935 E_impro  =         0.0000 E_vdwl   =       -20.0593 
E_coul   =         0.0000 E_long   =         0.0000 Press    =         1.0888
------------ Step          49280 ----- CPU =     6.066976 (sec) -------------
TotEng   =       168.6954 KinEng   =        78.8926 Temp     =       267.3419 
PotEng   =        89.8028 E_bond   =        34.6419 E_angle  =        30.0814 
E_dihed  =        44.2708 E_impro  =         0.0000 E_vdwl   =       -19.1914 
E_coul   =         0.0000 E_long   =         0.0000 Press    =         4.4339
------------ Step          49300 ----- CPU =     6.069786 (sec) -------------
TotEng   =       168.8741 KinEng   =        88.2054 Temp     =       298.8997 
PotEng   =        80.6687 E_bond   =        24.5016 E_angle  =        32.0803 
E_dihed  =        43.1928 E_impro  =         0.0000 E_vdwl   =       -19.1061 
E_coul   =         0.0000 E_long   =         0.0000 Press    =        -0.0429
------------ Step          49320 ----- CPU =     6.071734 (sec) -------------
TotEng   =       169.0363 KinEng   =        99.2928 Temp     =       336.4714 
PotEng   =        69.7435 E_bond   =        21.8169 E_angle  =        29.9451 
E_dihed  =        37.0104 E_impro  =         0.0000 E_vdwl   =       -19.0288 
E_coul   =         0.0000 E_long   =         0.0000 Press    =         1.2855
------------ Step          49340 ----- CPU =     6.073305 (sec) -------------
TotEng   =       168.9166 KinEng   =        89.7091 Temp     =       303.9956 
PotEng   =        79.2074 E_bond   =        36.1700 E_angle  =        25.6263 
E_dihed  =        35.6741 E_impro  =         0.0000 E_vdwl   =       -18.2630 
E_coul   =         0.0000 E_long   =         0.0000 Press    =         1.1715
------------ Step          49360 ----- CPU =     6.074834 (sec) -------------
TotEng   =       168.0345 KinEng   =        91.9443 Temp     =       311.5699 
PotEng   =        76.0902 E_bond   =        26.9029 E_angle  =        30.4814 
E_dihed  =        37.0455 E_impro  =         0.0000 E_vdwl   =       -18.3396 
E_coul   =         0.0000 E_long   =         0.0000 Press    =        -2.8821
------------ Step          49380 ----- CPU =     6.076326 (sec) -------------
TotEng   =       166.9409 KinEng   =        96.2848 Temp     =       326.2783 
PotEng   =        70.6561 E_bond   =        23.8018 E_angle  =        22.6134 
E_dihed  =        43.1481 E_impro  =         0.0000 E_vdwl   =       -18.9072 
E_coul   =         0.0000 E_long   =         0.0000 Press    =        -0.3442
------------ Step          49400 ----- CPU =     6.078269 (sec) -------------
TotEng   =       165.8863 KinEng   =        77.0307 Temp     =       261.0323 
PotEng   =        88.8557 E_bond   =        30.1225 E_angle  =        31.6691 
E_dihed  =        45.7724 E_impro  =         0.0000 E_vdwl   =       -18.7083 
E_coul   =         0.0000 E_long   =         0.0000 Press    =        -1.8765
------------ Step          49420 ----- CPU =     6.079965 (sec) -------------
TotEng   =       164.9676 KinEng   =        91.2984 Temp     =       309.3809 
PotEng   =        73.6693 E_bond   =        26.6108 E_angle  =        20.6229 
E_dihed  =        44.8422 E_impro  =         0.0000 E_vdwl   =       -18.4067 
E_coul   =         0.0000 E_long   =         0.0000 Press    =        -2.4594
------------ Step          49440 ----- CPU =     6.081276 (sec) -------------
TotEng   =       163.8878 KinEng   =        92.3643 Temp     =       312.9931 
PotEng   =        71.5235 E_bond   =        26.6835 E_angle  =        25.1353 
E_dihed  =        41.4795 E_impro  =         0.0000 E_vdwl   =       -21.7748 
E_coul   =         0.0000 E_long   =         0.0000 Press    =         2.1251
------------ Step          49460 ----- CPU =     6.083301 (sec) -------------
TotEng   =       162.2922 KinEng   =        93.0889 Temp     =       315.4484 
PotEng   =        69.2034 E_bond   =        22.1500 E_angle  =        25.1587 
E_dihed  =        42.6862 E_impro  =         0.0000 E_vdwl   =       -20.7916 
E_coul   =         0.0000 E_long   =         0.0000 Press    =         1.1873
------------ Step          49480 ----- CPU =     6.084946 (sec) -------------
TotEng   =       160.6474 KinEng   =        78.1282 Temp     =       264.7515 
PotEng   =        82.5191 E_bond   =        31.2430 E_angle  =        29.6523 
E_dihed  =        45.0458 E_impro  =         0.0000 E_vdwl   =       -23.4220 
E_coul   =         0.0000 E_long   =         0.0000 Press    =        -1.6811
------------ Step          49500 ----- CPU =     6.086311 (sec) -------------
TotEng   =       159.1408 KinEng   =        78.4413 Temp     =       265.8123 
PotEng   =        80.6995 E_bond   =        27.5205 E_angle  =        31.9243 
E_dihed  =        43.0047 E_impro  =         0.0000 E_vdwl   =       -21.7499 
E_coul   =         0.0000 E_long   =         0.0000 Press    =         0.8383
------------ Step          49520 ----- CPU =      6.08828 (sec) -------------
TotEng   =       158.0365 KinEng   =        82.6358 Temp     =       280.0262 
PotEng   =        75.4007 E_bond   =        24.9560 E_angle  =        30.3081 
E_dihed  =        42.0639 E_impro  =         0.0000 E_vdwl   =       -21.9274 
E_coul   =         0.0000 E_long   =         0.0000 Press    =         2.2219
------------ Step          49540 ----- CPU =     6.090173 (sec) -------------
TotEng   =       157.1637 KinEng   =        84.3428 Temp     =       285.8106 
PotEng   =        72.8209 E_bond   =        26.3006 E_angle  =        25.7137 
E_dihed  =        43.0769 E_impro  =         0.0000 E_vdwl   =       -22.2702 
E_coul   =         0.0000 E_long   =         0.0000 Press    =         0.2079
------------ Step          49560 ----- CPU =     6.091732 (sec) -------------
TotEng   =       156.4489 KinEng   =        82.2920 Temp     =       278.8610 
PotEng   =        74.1569 E_bond   =        27.2227 E_angle  =        25.3999 
E_dihed  =        44.1321 E_impro  =         0.0000 E_vdwl   =       -22.5979 
E_coul   =         0.0000 E_long   =         0.0000 Press    =        -1.6972
------------ Step          49580 ----- CPU =      6.09356 (sec) -------------
TotEng   =       156.0918 KinEng   =        80.9269 Temp     =       274.2352 
PotEng   =        75.1649 E_bond   =        26.1938 E_angle  =        25.0701 
E_dihed  =        46.4824 E_impro  =         0.0000 E_vdwl   =       -22.5814 
E_coul   =         0.0000 E_long   =         0.0000 Press    =        -0.4028
------------ Step          49600 ----- CPU =     6.094851 (sec) -------------
TotEng   =       156.1912 KinEng   =        78.7063 Temp     =       266.7103 
PotEng   =        77.4850 E_bond   =        25.1941 E_angle  =        26.4339 
E_dihed  =        48.0273 E_impro  =         0.0000 E_vdwl   =       -22.1704 
E_coul   =         0.0000 E_long   =         0.0000 Press    =        -2.3678
------------ Step          49620 ----- CPU =     6.096993 (sec) -------------
TotEng   =       157.2130 KinEng   =        87.0184 Temp     =       294.8775 
PotEng   =        70.1946 E_bond   =        24.2541 E_angle  =        22.3446 
E_dihed  =        47.1549 E_impro  =         0.0000 E_vdwl   =       -23.5589 
E_coul   =         0.0000 E_long   =         0.0000 Press    =         0.4729
------------ Step          49640 ----- CPU =     6.099111 (sec) -------------
TotEng   =       158.9428 KinEng   =        79.7585 Temp     =       270.2760 
PotEng   =        79.1843 E_bond   =        26.9440 E_angle  =        27.5816 
E_dihed  =        45.1965 E_impro  =         0.0000 E_vdwl   =       -20.5378 
E_coul   =         0.0000 E_long   =         0.0000 Press    =         3.6819
------------ Step          49660 ----- CPU =      6.10161 (sec) -------------
TotEng   =       161.8861 KinEng   =        78.2565 Temp     =       265.1864 
PotEng   =        83.6296 E_bond   =        29.5621 E_angle  =        29.4869 
E_dihed  =        45.3379 E_impro  =         0.0000 E_vdwl   =       -20.7574 
E_coul   =         0.0000 E_long   =         0.0000 Press    =        -0.9832
------------ Step          49680 ----- CPU =     6.103264 (sec) -------------
TotEng   =       165.7363 KinEng   =        83.8090 Temp     =       284.0020 
PotEng   =        81.9273 E_bond   =        24.0949 E_angle  =        30.6978 
E_dihed  =        44.9837 E_impro  =         0.0000 E_vdwl   =       -17.8491 
E_coul   =         0.0000 E_long   =         0.0000 Press    =         2.7560
------------ Step          49700 ----- CPU =     6.104979 (sec) -------------
TotEng   =       170.3712 KinEng   =        93.0314 Temp     =       315.2537 
PotEng   =        77.3397 E_bond   =        28.3075 E_angle  =        22.8894 
E_dihed  =        43.5861 E_impro  =         0.0000 E_vdwl   =       -17.4432 
E_coul   =         0.0000 E_long   =         0.0000 Press    =         0.9021
------------ Step          49720 ----- CPU =     6.106845 (sec) -------------
TotEng   =       174.3912 KinEng   =        84.7414 Temp     =       287.1616 
PotEng   =        89.6497 E_bond   =        30.6774 E_angle  =        30.2246 
E_dihed  =        46.5024 E_impro  =         0.0000 E_vdwl   =       -17.7546 
E_coul   =         0.0000 E_long   =         0.0000 Press    =        -2.0317
------------ Step          49740 ----- CPU =      6.10832 (sec) -------------
TotEng   =       177.4737 KinEng   =        90.8722 Temp     =       307.9369 
PotEng   =        86.6015 E_bond   =        26.1271 E_angle  =        29.2590 
E_dihed  =        48.6570 E_impro  =         0.0000 E_vdwl   =       -17.4416 
E_coul   =         0.0000 E_long   =         0.0000 Press    =         3.0679
------------ Step          49760 ----- CPU =     6.110174 (sec) -------------
TotEng   =       179.9228 KinEng   =        80.7867 Temp     =       273.7601 
PotEng   =        99.1361 E_bond   =        31.4789 E_angle  =        38.1724 
E_dihed  =        46.6950 E_impro  =         0.0000 E_vdwl   =       -17.2102 
E_coul   =         0.0000 E_long   =         0.0000 Press    =        -2.2434
------------ Step          49780 ----- CPU =     6.111684 (sec) -------------
TotEng   =       181.9605 KinEng   =        91.3606 Temp     =       309.5919 
PotEng   =        90.5999 E_bond   =        25.9281 E_angle  =        35.7336 
E_dihed  =        47.9937 E_impro  =         0.0000 E_vdwl   =       -19.0556 
E_coul   =         0.0000 E_long   =         0.0000 Press    =        -1.1179
------------ Step          49800 ----- CPU =       6.1134 (sec) -------------
TotEng   =       183.8311 KinEng   =        89.0725 Temp     =       301.8383 
PotEng   =        94.7586 E_bond   =        32.4449 E_angle  =        25.4002 
E_dihed  =        53.6571 E_impro  =         0.0000 E_vdwl   =       -16.7436 
E_coul   =         0.0000 E_long   =         0.0000 Press    =         0.8480
------------ Step          49820 ----- CPU =     6.115867 (sec) -------------
TotEng   =       185.3738 KinEng   =        90.7096 Temp     =       307.3857 
PotEng   =        94.6642 E_bond   =        27.4328 E_angle  =        34.4336 
E_dihed  =        53.8851 E_impro  =         0.0000 E_vdwl   =       -21.0873 
E_coul   =         0.0000 E_long   =         0.0000 Press    =        -0.1853
------------ Step          49840 ----- CPU =     6.117987 (sec) -------------
TotEng   =       186.8024 KinEng   =        88.4417 Temp     =       299.7004 
PotEng   =        98.3607 E_bond   =        32.3836 E_angle  =        33.0938 
E_dihed  =        51.2924 E_impro  =         0.0000 E_vdwl   =       -18.4091 
E_coul   =         0.0000 E_long   =         0.0000 Press    =         0.8628
------------ Step          49860 ----- CPU =     6.119541 (sec) -------------
TotEng   =       187.9611 KinEng   =        93.4093 Temp     =       316.5341 
PotEng   =        94.5518 E_bond   =        32.0294 E_angle  =        31.2409 
E_dihed  =        50.5168 E_impro  =         0.0000 E_vdwl   =       -19.2352 
E_coul   =         0.0000 E_long   =         0.0000 Press    =        -0.3367
------------ Step          49880 ----- CPU =     6.121358 (sec) -------------
TotEng   =       188.8049 KinEng   =        89.2675 Temp     =       302.4989 
PotEng   =        99.5374 E_bond   =        32.3026 E_angle  =        35.8135 
E_dihed  =        51.8957 E_impro  =         0.0000 E_vdwl   =       -20.4744 
E_coul   =         0.0000 E_long   =         0.0000 Press    =         1.4913
------------ Step          49900 ----- CPU =     6.122883 (sec) -------------
TotEng   =       189.3176 KinEng   =        98.1788 Temp     =       332.6964 
PotEng   =        91.1388 E_bond   =        28.5195 E_angle  =        30.4893 
E_dihed  =        54.1805 E_impro  =         0.0000 E_vdwl   =       -22.0505 
E_coul   =         0.0000 E_long   =         0.0000 Press    =        -3.0213
------------ Step          49920 ----- CPU =     6.124854 (sec) -------------
TotEng   =       189.3566 KinEng   =        92.6027 Temp     =       313.8008 
PotEng   =        96.7540 E_bond   =        28.2495 E_angle  =        37.1734 
E_dihed  =        51.5066 E_impro  =         0.0000 E_vdwl   =       -20.1755 
E_coul   =         0.0000 E_long   =         0.0000 Press    =        -0.5301
------------ Step          49940 ----- CPU =     6.126176 (sec) -------------
TotEng   =       189.0090 KinEng   =        98.3791 Temp     =       333.3754 
PotEng   =        90.6298 E_bond   =        34.7214 E_angle  =        30.8587 
E_dihed  =        44.2889 E_impro  =         0.0000 E_vdwl   =       -19.2392 
E_coul   =         0.0000 E_long   =         0.0000 Press    =         3.4132
------------ Step          49960 ----- CPU =     6.127481 (sec) -------------
TotEng   =       187.4889 KinEng   =        97.7646 Temp     =       331.2929 
PotEng   =        89.7243 E_bond   =        31.3043 E_angle  =        31.2142 
E_dihed  =        47.2189 E_impro  =         0.0000 E_vdwl   =       -20.0132 
E_coul   =         0.0000 E_long   =         0.0000 Press    =        -2.5051
------------ Step          49980 ----- CPU =     6.129007 (sec) -------------
TotEng   =       184.8847 KinEng   =        90.4162 Temp     =       306.3915 
PotEng   =        94.4685 E_bond   =        32.4523 E_angle  =        29.5897 
E_dihed  =        52.5814 E_impro  =         0.0000 E_vdwl   =       -20.1549 
E_coul   =         0.0000 E_long   =         0.0000 Press    =         2.1418
------------ Step          50000 ----- CPU =     6.130259 (sec) -------------
TotEng   =       181.7390 KinEng   =        98.8087 Temp     =       334.8311 
PotEng   =        82.9303 E_bond   =        25.4091 E_angle  =        23.7412 
E_dihed  =        53.4306 E_impro  =         0.0000 E_vdwl   =       -19.6505 
E_coul   =         0.0000 E_long   =         0.0000 Press    =         2.8830
------------ Step          50020 ----- CPU =     6.132257 (sec) -------------
TotEng   =       177.9293 KinEng   =        82.6024 Temp     =       279.9132 
PotEng   =        95.3269 E_bond   =        32.3321 E_angle  =        31.2818 
E_dihed  =        51.3841 E_impro  =         0.0000 E_vdwl   =       -19.6710 
E_coul   =         0.0000 E_long   =         0.0000 Press    =        -1.4506
------------ Step          50040 ----- CPU =     6.133891 (sec) -------------
TotEng   =       174.1839 KinEng   =        92.5958 Temp     =       313.7777 
PotEng   =        81.5881 E_bond   =        30.2798 E_angle  =        27.6710 
E_dihed  =        43.4476 E_impro  =         0.0000 E_vdwl   =       -19.8103 
E_coul   =         0.0000 E_long   =         0.0000 Press    =         1.3274
------------ Step          50060 ----- CPU =     6.135558 (sec) -------------
TotEng   =       170.0967 KinEng   =        94.9881 Temp     =       321.8841 
PotEng   =        75.1087 E_bond   =        26.9270 E_angle  =        23.9078 
E_dihed  =        42.7648 E_impro  =         0.0000 E_vdwl   =       -18.4910 
E_coul   =         0.0000 E_long   =         0.0000 Press    =        -0.2859
Loop time of 6.13566 on 1 procs for 50000 steps with 100 atoms

Performance: 704.080 ns/day, 0.034 hours/ns, 8149.079 timesteps/s, 814.908 katom-step/s
55.0% CPU use with 1 MPI tasks x no OpenMP threads

MPI task timing breakdown:
Section |  min time  |  avg time  |  max time  |%varavg| %total
---------------------------------------------------------------
Pair    | 1.4872     | 1.4872     | 1.4872     |   0.0 | 24.24
Bond    | 1.6944     | 1.6944     | 1.6944     |   0.0 | 27.61
Neigh   | 0.50581    | 0.50581    | 0.50581    |   0.0 |  8.24
Comm    | 0.04035    | 0.04035    | 0.04035    |   0.0 |  0.66
Output  | 1.0508     | 1.0508     | 1.0508     |   0.0 | 17.13
Modify  | 1.251      | 1.251      | 1.251      |   0.0 | 20.39
Other   |            | 0.1062     |            |       |  1.73

Nlocal:            100 ave         100 max         100 min
Histogram: 1 0 0 0 0 0 0 0 0 0
Nghost:              0 ave           0 max           0 min
Histogram: 1 0 0 0 0 0 0 0 0 0
Neighs:           1412 ave        1412 max        1412 min
Histogram: 1 0 0 0 0 0 0 0 0 0
FullNghs:            0 ave           0 max           0 min
Histogram: 1 0 0 0 0 0 0 0 0 0

Total # of neighbors = 1412
Ave neighs/atom = 14.12
Ave special neighs/atom = 5.88
Neighbor list builds = 3094
Dangerous builds = 0

print "All done"
All done
write_data final.data nofix
System init for write_data ...
Generated 0 of 3 mixed pair_coeff terms from geometric mixing rule
WARNING: Not all mixed pair coeffs generated from mixing. Use write_data with 'pair ij' option to store all pair coeffs. (src/src/write_data.cpp:326)
Total wall time: 0:00:10
