read_data	InitialFile.txt
Reading data file ...
  orthogonal box = (0 0 0) to (158.5 158.5 158.5)
  1 by 1 by 1 MPI processor grid
WARNING: Atom style in data file atomic differs from currently defined atom style molecular (src/src/read_data.cpp:621)
  reading atoms ...
  100 atoms
  scanning bonds ...
  1 = max bonds/atom
  scanning angles ...
  1 = max angles/atom
  scanning dihedrals ...
  1 = max dihedrals/atom
  reading bonds ...
  99 bonds
  reading angles ...
  98 angles
  reading dihedrals ...
  97 dihedrals
Finding 1-2 1-3 1-4 neighbors ...
  special bond factors lj:    0        0        0       
  special bond factors coul:  0        0        0       
     2 = max # of 1-2 neighbors
     2 = max # of 1-3 neighbors
     4 = max # of 1-4 neighbors
     6 = max # of special neighbors
  special bonds CPU = 0.011 seconds
  read_data CPU = 0.067 seconds

# Dreiding potential information
neighbor	2.0 bin
neigh_modify every 1 delay 0 check yes

bond_style      harmonic
bond_coeff	1 350 1.53
bond_coeff	2 700 1.53

angle_style     harmonic
angle_coeff	1 60 109.5
angle_coeff	2 120 109.5

dihedral_style	multi/harmonic
dihedral_coeff	1 1.73 -4.49 0.776 6.99 0.0
dihedral_coeff	2 1.73 -4.49 0.776 6.99 0.0

pair_style	lj/cut 10.5
pair_coeff	* * 1.0 1.0 10.5
pair_coeff	3 3 2.0 0.5 10.5

compute csym all centro/atom fcc
compute peratom all pe/atom


#####################################################
# Equilibration (Brownian dynamics at 300 K)

velocity 	all create 300.0 1231
fix		1 all nve/limit 0.05
fix 2 all brownian 30.0 12908410 gamma_t 3.0 rng gaussian # Compute a correct 300K simulation, check the value for gamma_t
thermo_style	custom step temp
thermo          10000
timestep	1
run		100000
Generated 0 of 3 mixed pair_coeff terms from geometric mixing rule
WARNING: One or more atoms are time integrated more than once (src/src/modify.cpp:289)
Neighbor list info ...
  update: every = 1 steps, delay = 0 steps, check = yes
  max neighbors/atom: 2000, page size: 100000
  master list distance cutoff = 12.5
  ghost atom cutoff = 12.5
  binsize = 6.25, bins = 26 26 26
  2 neighbor lists, perpetual/occasional/extra = 1 1 0
  (1) pair lj/cut, perpetual
      attributes: half, newton on
      pair build: half/bin/newton
      stencil: half/bin/3d
      bin: standard
  (2) compute centro/atom, occasional
      attributes: full, newton on
      pair build: full/bin
      stencil: full/bin/3d
      bin: standard
Per MPI rank memory allocation (min/avg/max) = 8.1 | 8.1 | 8.1 Mbytes
   Step          Temp     
         0   300          
     10000   301.14599    
     20000   258.43265    
     30000   315.00716    
     40000   287.928      
     50000   283.03081    
     60000   294.87487    
     70000   308.54187    
     80000   273.87121    
     90000   333.45859    
    100000   336.77018    
Loop time of 3.56553 on 1 procs for 100000 steps with 100 atoms

Performance: 2423.201 ns/day, 0.010 hours/ns, 28046.312 timesteps/s, 2.805 Matom-step/s
90.7% CPU use with 1 MPI tasks x no OpenMP threads

MPI task timing breakdown:
Section |  min time  |  avg time  |  max time  |%varavg| %total
---------------------------------------------------------------
Pair    | 0.85338    | 0.85338    | 0.85338    |   0.0 | 23.93
Bond    | 1.5423     | 1.5423     | 1.5423     |   0.0 | 43.26
Neigh   | 0.0053839  | 0.0053839  | 0.0053839  |   0.0 |  0.15
Comm    | 0.022216   | 0.022216   | 0.022216   |   0.0 |  0.62
Output  | 0.00023317 | 0.00023317 | 0.00023317 |   0.0 |  0.01
Modify  | 1.0547     | 1.0547     | 1.0547     |   0.0 | 29.58
Other   |            | 0.08728    |            |       |  2.45

Nlocal:            100 ave         100 max         100 min
Histogram: 1 0 0 0 0 0 0 0 0 0
Nghost:              0 ave           0 max           0 min
Histogram: 1 0 0 0 0 0 0 0 0 0
Neighs:            630 ave         630 max         630 min
Histogram: 1 0 0 0 0 0 0 0 0 0
FullNghs:            0 ave           0 max           0 min
Histogram: 1 0 0 0 0 0 0 0 0 0

Total # of neighbors = 630
Ave neighs/atom = 6.3
Ave special neighs/atom = 5.88
Neighbor list builds = 81
Dangerous builds = 0
unfix 1
unfix 2
write_restart 	restart.${simname}.dreiding1
write_restart 	restart.InitialFile.dreiding1
System init for write_restart ...
Generated 0 of 3 mixed pair_coeff terms from geometric mixing rule

#####################################################
# Define Settings
compute eng all pe/atom
compute eatoms all reduce sum c_eng

#####################################################
# Minimization

dump mydmp all atom 100 dump.lammpstrj

reset_timestep 0
fix 1 all nvt temp 300.0 300.0 100.0
thermo 20
thermo_style custom step pe lx ly lz press pxx pyy pzz c_eatoms
min_style cg
minimize 1e-25 1e-25 500000 1000000
Generated 0 of 3 mixed pair_coeff terms from geometric mixing rule
Per MPI rank memory allocation (min/avg/max) = 9.225 | 9.225 | 9.225 Mbytes
   Step         PotEng           Lx             Ly             Lz           Press           Pxx            Pyy            Pzz          c_eatoms   
         0   16.887103      158.5          158.5          158.5          1.5350059      2.2073965      0.7835975      1.6140237      16.887103    
        20   2.5524196      158.5          158.5          158.5          2.2160604      2.4198831      2.1976265      2.0306715      2.5524196    
        40   2.0888763      158.5          158.5          158.5          2.2407899      2.4775276      2.1936896      2.0511525      2.0888763    
        60   1.9134504      158.5          158.5          158.5          2.2067691      2.3869425      2.2179808      2.015384       1.9134504    
        80   1.862429       158.5          158.5          158.5          2.112045       2.2950357      2.12043        1.9206694      1.862429     
       100   1.5858978      158.5          158.5          158.5          2.1010873      2.2389277      2.1317966      1.9325377      1.5858978    
       120   1.2151314      158.5          158.5          158.5          1.7365788      1.9033828      1.7027897      1.6035639      1.2151314    
       140   1.133          158.5          158.5          158.5          1.8108524      2.0311123      1.7991888      1.6022562      1.133        
       160   1.0477338      158.5          158.5          158.5          1.7263096      1.946452       1.7138124      1.5186643      1.0477338    
       180   1.0476624      158.5          158.5          158.5          1.7269606      1.947093       1.714416       1.5193727      1.0476624    
       200   1.0467251      158.5          158.5          158.5          1.7408456      1.9607427      1.7272693      1.5345247      1.0467251    
       220   1.0201008      158.5          158.5          158.5          1.6930607      1.9116931      1.6791884      1.4883006      1.0201008    
       240   0.85872422     158.5          158.5          158.5          1.3650434      1.5808861      1.3385712      1.1756728      0.85872422   
       260   0.82112555     158.5          158.5          158.5          1.2985698      1.5141612      1.287986       1.0935621      0.82112555   
       280   0.81072935     158.5          158.5          158.5          1.3067621      1.5352865      1.2859812      1.0990187      0.81072935   
       300   0.80176914     158.5          158.5          158.5          1.2938211      1.5150213      1.2805193      1.0859228      0.80176914   
       320   0.79259845     158.5          158.5          158.5          1.304419       1.5157333      1.2910083      1.1065154      0.79259845   
       340   0.78302806     158.5          158.5          158.5          1.2833227      1.4916702      1.2766892      1.0816086      0.78302806   
       360   0.77839217     158.5          158.5          158.5          1.2796794      1.4794082      1.278144       1.0814861      0.77839217   
       380   0.73349577     158.5          158.5          158.5          1.2614806      1.5432562      1.2108494      1.0303363      0.73349577   
       400   0.73332067     158.5          158.5          158.5          1.260281       1.5392369      1.2111826      1.0304234      0.73332067   
       411   0.73332067     158.5          158.5          158.5          1.260281       1.5392369      1.2111826      1.0304234      0.73332067   
Loop time of 0.0546403 on 1 procs for 411 steps with 100 atoms

94.0% CPU use with 1 MPI tasks x no OpenMP threads

Minimization stats:
  Stopping criterion = energy tolerance
  Energy initial, next-to-last, final = 
       16.887103411951   0.73332067211997   0.73332067211997
  Force two-norm initial, final = 142.96626 3.088905
  Force max component initial, final = 32.49507 1.5594032
  Final line search alpha, max atom move = 0.032063548 0.05
  Iterations, force evaluations = 411 1501

MPI task timing breakdown:
Section |  min time  |  avg time  |  max time  |%varavg| %total
---------------------------------------------------------------
Pair    | 0.024043   | 0.024043   | 0.024043   |   0.0 | 44.00
Bond    | 0.025663   | 0.025663   | 0.025663   |   0.0 | 46.97
Neigh   | 0          | 0          | 0          |   0.0 |  0.00
Comm    | 0.00023637 | 0.00023637 | 0.00023637 |   0.0 |  0.43
Output  | 0.0012209  | 0.0012209  | 0.0012209  |   0.0 |  2.23
Modify  | 0          | 0          | 0          |   0.0 |  0.00
Other   |            | 0.003477   |            |       |  6.36

Nlocal:            100 ave         100 max         100 min
Histogram: 1 0 0 0 0 0 0 0 0 0
Nghost:              0 ave           0 max           0 min
Histogram: 1 0 0 0 0 0 0 0 0 0
Neighs:            640 ave         640 max         640 min
Histogram: 1 0 0 0 0 0 0 0 0 0
FullNghs:            0 ave           0 max           0 min
Histogram: 1 0 0 0 0 0 0 0 0 0

Total # of neighbors = 640
Ave neighs/atom = 6.4
Ave special neighs/atom = 5.88
Neighbor list builds = 0
Dangerous builds = 0

group type1_atoms type 1
35 atoms in group type1_atoms
group type2_atoms type 2
28 atoms in group type2_atoms
group type3_atoms type 3
37 atoms in group type3_atoms

molecule mol1closeTo3PRE mol1closeTo3PRE.txt
Read molecule template mol1closeTo3PRE:
  1 molecules
  0 fragments
  3 atoms with max type 3
  0 bonds with max type 0
  0 angles with max type 0
  0 dihedrals with max type 0
  0 impropers with max type 0
molecule mol1closeTo3POST mol1closeTo3POST.txt
Read molecule template mol1closeTo3POST:
  1 molecules
  0 fragments
  3 atoms with max type 3
  0 bonds with max type 0
  0 angles with max type 0
  0 dihedrals with max type 0
  0 impropers with max type 0
molecule mol3closeTo1POST mol3closeTo1POST.txt
Read molecule template mol3closeTo1POST:
  1 molecules
  0 fragments
  3 atoms with max type 2
  0 bonds with max type 0
  0 angles with max type 0
  0 dihedrals with max type 0
  0 impropers with max type 0
molecule mol2closeTo3PRE mol2closeTo3PRE.txt
Read molecule template mol2closeTo3PRE:
  1 molecules
  0 fragments
  3 atoms with max type 3
  0 bonds with max type 0
  0 angles with max type 0
  0 dihedrals with max type 0
  0 impropers with max type 0
molecule mol2closeTo3POST mol2closeTo3POST.txt
Read molecule template mol2closeTo3POST:
  1 molecules
  0 fragments
  3 atoms with max type 3
  0 bonds with max type 0
  0 angles with max type 0
  0 dihedrals with max type 0
  0 impropers with max type 0
molecule mol3closeTo2POST mol3closeTo2POST.txt
Read molecule template mol3closeTo2POST:
  1 molecules
  0 fragments
  3 atoms with max type 2
  0 bonds with max type 0
  0 angles with max type 0
  0 dihedrals with max type 0
  0 impropers with max type 0
molecule mol2closeTo1PRE mol2closeTo1PRE.txt
Read molecule template mol2closeTo1PRE:
  1 molecules
  0 fragments
  3 atoms with max type 3
  0 bonds with max type 0
  0 angles with max type 0
  0 dihedrals with max type 0
  0 impropers with max type 0
molecule mol2closeTo1POST mol2closeTo1POST.txt
Read molecule template mol2closeTo1POST:
  1 molecules
  0 fragments
  3 atoms with max type 3
  0 bonds with max type 0
  0 angles with max type 0
  0 dihedrals with max type 0
  0 impropers with max type 0

fix 3 all bond/react   react reac1to2 type1_atoms 1 0 8 mol1closeTo3PRE mol1closeTo3POST map_1to2.txt   react reac2to3 type2_atoms 1 0 8 mol2closeTo3PRE mol2closeTo3POST map_2to3.txt   react reac3to2 type3_atoms 1 0 8 mol2closeTo3PRE mol3closeTo2POST map_3to2.txt   react reac2to1 type2_atoms 1 0 8 mol2closeTo1PRE mol2closeTo1POST map_2to1.txt
dynamic group bond_react_MASTER_group defined
run 50000

CITE-CITE-CITE-CITE-CITE-CITE-CITE-CITE-CITE-CITE-CITE-CITE-CITE

Your simulation uses code contributions which should be cited:

- fix bond/react: reacter.org doi:10.1016/j.polymer.2017.09.038, doi:10.1021/acs.macromol.0c02012

@Article{Gissinger17,
 author = {J. R. Gissinger and B. D. Jensen and K. E. Wise},
 title = {Modeling Chemical Reactions in Classical Molecular Dynamics Simulations},
 journal = {Polymer},
 year =    2017,
 volume =  128,
 pages =   {211--217}
}

@Article{Gissinger20,
 author = {J. R. Gissinger, B. D. Jensen, K. E. Wise},
 title = {{REACTER}: A Heuristic Method for Reactive Molecular Dynamics},
 journal = {Macromolecules},
 year =    2020,
 volume =  53,
 number =  22,
 pages =   {9953--9961}
}

CITE-CITE-CITE-CITE-CITE-CITE-CITE-CITE-CITE-CITE-CITE-CITE-CITE

Generated 0 of 3 mixed pair_coeff terms from geometric mixing rule
Neighbor list info ...
  update: every = 1 steps, delay = 0 steps, check = yes
  max neighbors/atom: 2000, page size: 100000
  master list distance cutoff = 12.5
  ghost atom cutoff = 12.5
  binsize = 6.25, bins = 26 26 26
  3 neighbor lists, perpetual/occasional/extra = 1 2 0
  (1) pair lj/cut, perpetual
      attributes: half, newton on
      pair build: half/bin/newton
      stencil: half/bin/3d
      bin: standard
  (2) compute centro/atom, occasional
      attributes: full, newton on
      pair build: full/bin
      stencil: full/bin/3d
      bin: standard
  (3) fix bond/react, occasional, copy from (1)
      attributes: half, newton on
      pair build: copy
      stencil: none
      bin: none
Per MPI rank memory allocation (min/avg/max) = 9.542 | 9.542 | 9.542 Mbytes
   Step         PotEng           Lx             Ly             Lz           Press           Pxx            Pyy            Pzz          c_eatoms   
       411   0.73332067     158.5          158.5          158.5          1.260281       1.5392369      1.2111826      1.0304234      0.73332067   
       420   42.072393      158.5          158.5          158.5          1.7503367     -0.38864911     2.6641271      2.9755321      42.072393    
       440   32.473134      158.5          158.5          158.5         -0.022605479   -2.0480144      0.069892462    1.9103055      32.473134    
       460   55.563388      158.5          158.5          158.5         -2.5478049     -3.5543259     -2.2062803     -1.8828085      55.563388    
       480   52.443141      158.5          158.5          158.5          0.49847749     0.16166278     0.38891244     0.94485725     52.443141    
       500   55.054313      158.5          158.5          158.5         -1.4265588     -4.1060684     -1.5954755      1.4218675      55.054313    
       520   49.414061      158.5          158.5          158.5         -2.6262911     -6.5206218     -2.8111206      1.452869       49.414061    
       540   63.565151      158.5          158.5          158.5         -0.67612883    -1.1086627     -1.6157439      0.69602019     63.565151    
       560   53.323745      158.5          158.5          158.5         -1.9638972     -1.9620322     -2.3455005     -1.5841588      53.323745    
       580   55.743561      158.5          158.5          158.5         -2.3874337     -5.6559828     -0.44916499    -1.0571533      55.743561    
       600   56.349913      158.5          158.5          158.5         -0.33768443    -1.6604565     -0.1268862      0.77428936     56.349913    
       620   63.556355      158.5          158.5          158.5         -1.6379359     -0.89847669    -2.8848655     -1.1304654      63.556355    
       640   57.660524      158.5          158.5          158.5         -2.0014176     -0.77951512    -1.3440851     -3.8806525      57.660524    
       660   65.782204      158.5          158.5          158.5          0.0097943781   0.82229577     2.2542826     -3.0471952      65.782204    
       680   67.205884      158.5          158.5          158.5         -1.0035052     -2.2835084      0.92552533    -1.6525326      67.205884    
       700   65.414172      158.5          158.5          158.5         -2.4367356     -2.7436192      0.85032804    -5.4169157      65.414172    
       720   75.386521      158.5          158.5          158.5         -0.42181611     2.3535551      1.5716332     -5.1906366      75.386521    
       740   84.863862      158.5          158.5          158.5         -1.7920273     -2.4052897     -1.0807684     -1.8900238      84.863862    
       760   78.677914      158.5          158.5          158.5         -3.1894229     -7.2805341      0.83513973    -3.1228745      78.677914    
       780   77.835506      158.5          158.5          158.5         -0.46160666     0.30764331     1.8141019     -3.5065652      77.835506    
       800   77.998871      158.5          158.5          158.5         -2.7012225     -1.4412525     -2.4269514     -4.2354635      77.998871    
       820   95.446775      158.5          158.5          158.5         -3.0419026     -5.2220545     -2.0334125     -1.8702407      95.446775    
       840   73.930539      158.5          158.5          158.5          2.0183208      1.5856921      2.4629965      2.0062739      73.930539    
       860   81.958635      158.5          158.5          158.5         -1.7895494     -0.26021472    -2.7771952     -2.3312382      81.958635    
       880   86.426501      158.5          158.5          158.5         -2.176315      -0.54986954    -4.9775165     -1.0015591      86.426501    
       900   97.824418      158.5          158.5          158.5          2.4301277      3.436846       0.80156206     3.0519751      97.824418    
       920   86.507179      158.5          158.5          158.5         -2.8922363     -4.0926781     -3.632597      -0.95143394     86.507179    
       940   87.88374       158.5          158.5          158.5         -2.5181827     -3.097465      -5.3083124      0.85122945     87.88374     
       960   98.281029      158.5          158.5          158.5          2.4762037      4.349546      -1.2863566      4.3654216      98.281029    
       980   89.261743      158.5          158.5          158.5         -2.7997177     -0.68066255    -5.784717      -1.9337735      89.261743    
      1000   89.760597      158.5          158.5          158.5         -2.3208493     -1.9930362     -3.5262074     -1.4433043      89.760597    
      1020   91.139658      158.5          158.5          158.5          3.2714603      4.7329995     -0.71630462     5.7976862      91.139658    
      1040   88.028281      158.5          158.5          158.5         -1.9528465      1.0220832     -6.5169751     -0.36364755     88.028281    
      1060   82.285219      158.5          158.5          158.5         -1.5992183     -0.59258873    -2.4244026     -1.7806635      82.285219    
      1080   81.381798      158.5          158.5          158.5          5.0501249      2.3835316      6.2719516      6.4948916      81.381798    
      1100   81.541558      158.5          158.5          158.5         -1.1586399     -1.1251147     -1.7825177     -0.56828715     81.541558    
      1120   78.781351      158.5          158.5          158.5         -1.4958613     -0.87980959    -0.97639914    -2.6313752      78.781351    
      1140   86.406979      158.5          158.5          158.5          5.5852327      4.7872205      7.9456219      4.0228556      86.406979    
      1160   80.067762      158.5          158.5          158.5         -0.37800481    -2.7051983      1.3682525      0.20293135     80.067762    
      1180   78.508516      158.5          158.5          158.5         -0.12936151    -0.72643552     3.23928       -2.900929       78.508516    
      1200   78.645682      158.5          158.5          158.5          7.1763008      8.6232966      9.2454046      3.6602012      78.645682    
      1220   89.27822       158.5          158.5          158.5         -0.24605716    -1.5248338      2.1685613     -1.381899       89.27822     
      1240   74.077728      158.5          158.5          158.5         -0.080035457   -2.8308259      4.3048055     -1.714086       74.077728    
      1260   80.451541      158.5          158.5          158.5          5.746086       5.8608207      6.3576652      5.0197721      80.451541    
      1280   79.285915      158.5          158.5          158.5         -0.0012689719   0.76147401     0.92691809    -1.692199       79.285915    
      1300   80.763361      158.5          158.5          158.5         -0.77117214    -1.3750087      1.7205923     -2.6591         80.763361    
      1320   83.131454      158.5          158.5          158.5          4.2690451      5.0812887      3.0204723      4.7053742      83.131454    
      1340   77.239015      158.5          158.5          158.5         -0.11170473     1.5243846     -1.2563728     -0.60312598     77.239015    
      1360   91.091252      158.5          158.5          158.5         -2.3072666     -3.0706605     -1.4585925     -2.3925467      91.091252    
      1380   83.147505      158.5          158.5          158.5          2.6180888      3.9982356     -0.89979363     4.7558245      83.147505    
      1400   84.219737      158.5          158.5          158.5         -1.3956836     -0.53643778    -3.7372241      0.086611094    84.219737    
      1420   98.517584      158.5          158.5          158.5         -4.0371531     -5.5923101     -3.2963193     -3.2228299      98.517584    
      1440   83.33136       158.5          158.5          158.5          2.1161439      2.4983969     -1.3989404      5.248975       83.33136     
      1460   91.110238      158.5          158.5          158.5         -0.51576623     0.74164007    -4.2573867      1.968448       91.110238    
      1480   96.066835      158.5          158.5          158.5         -3.0279419     -4.4669888     -1.2775651     -3.3392717      96.066835    
      1500   94.124492      158.5          158.5          158.5          2.0846151      1.033345       1.6037651      3.6167352      94.124492    
      1520   85.081754      158.5          158.5          158.5          0.35627424     0.43107423    -1.2988576      1.9366061      85.081754    
      1540   100.8104       158.5          158.5          158.5         -3.4285914     -4.8142078     -1.5646241     -3.9069423      100.8104     
      1560   94.71433       158.5          158.5          158.5          1.7880713      0.79756008     3.1469095      1.4197445      94.71433     
      1580   92.99191       158.5          158.5          158.5          2.082038       2.7212598      2.1650847      1.3597695      92.99191     
      1600   87.50448       158.5          158.5          158.5         -2.4841212     -0.94698595    -1.5651208     -4.940257       87.50448     
      1620   99.048501      158.5          158.5          158.5          1.9774051      1.7884381      3.8996974      0.24407979     99.048501    
      1640   78.182548      158.5          158.5          158.5          4.2935873      2.7190849      7.5316248      2.6300521      78.182548    
      1660   89.180405      158.5          158.5          158.5         -2.8361534     -3.0590256     -0.95062712    -4.4988076      89.180405    
      1680   98.063654      158.5          158.5          158.5          2.605288       2.8561864      3.4887279      1.4709497      98.063654    
      1700   91.50627       158.5          158.5          158.5          4.8154048      4.2143066      8.0524936      2.1794143      91.50627     
      1720   92.239071      158.5          158.5          158.5         -2.8707355     -4.3238726      0.59323021    -4.8815641      92.239071    
      1740   83.553389      158.5          158.5          158.5          3.5638493      2.6637494      3.9596026      4.068196       83.553389    
      1760   97.722735      158.5          158.5          158.5          4.8747011      6.0067415      5.57013        3.0472317      97.722735    
      1780   89.085688      158.5          158.5          158.5         -3.4341045     -3.1492717     -0.29859009    -6.8544517      89.085688    
      1800   83.667334      158.5          158.5          158.5          3.2335715      0.76381966     3.8020782      5.1348165      83.667334    
      1820   97.481919      158.5          158.5          158.5          6.2075331      5.5294904      6.0175195      7.0755893      97.481919    
      1840   92.100984      158.5          158.5          158.5         -2.1326472     -0.52881151    -1.3646342     -4.5044959      92.100984    
      1860   82.631215      158.5          158.5          158.5          3.2083585      3.3048365      4.4844725      1.8357666      82.631215    
      1880   92.404541      158.5          158.5          158.5          7.6226294      7.3167424      4.9602513      10.590894      92.404541    
      1900   96.278721      158.5          158.5          158.5         -2.3919918      0.041904374   -5.8854527     -1.3324272      96.278721    
      1920   92.43379       158.5          158.5          158.5          0.71919744     3.7323051      0.96147514    -2.536188       92.43379     
      1940   96.545033      158.5          158.5          158.5          6.9346303      7.3355988      4.4010021      9.0672902      96.545033    
      1960   89.140171      158.5          158.5          158.5         -2.5339608     -0.95288672    -7.3573978      0.70840226     89.140171    
      1980   85.400309      158.5          158.5          158.5          1.3996345      4.2081661     -0.0066694522  -0.0025933167   85.400309    
      2000   87.585188      158.5          158.5          158.5          7.1725306      7.7199699      6.2810916      7.5165303      87.585188    
      2020   98.121912      158.5          158.5          158.5         -3.2617216     -1.0748197     -5.9441516     -2.7661934      98.121912    
      2040   89.462625      158.5          158.5          158.5          0.59199011     2.4028731     -1.1973238      0.57042101     89.462625    
      2060   88.84669       158.5          158.5          158.5          3.2345436      3.9833892      2.5091832      3.2110585      88.84669     
      2080   91.635803      158.5          158.5          158.5         -4.8471055     -2.7474137     -4.3603343     -7.4335684      91.635803    
      2100   94.018085      158.5          158.5          158.5          0.39375955    -0.42581319     2.8407836     -1.2336918      94.018085    
      2120   90.945063      158.5          158.5          158.5          0.73512673     1.1106729      1.8828831     -0.78817584     90.945063    
      2140   92.90725       158.5          158.5          158.5         -4.5824305     -3.5725565     -4.7314676     -5.4432673      92.90725     
      2160   92.209884      158.5          158.5          158.5         -0.51691505    -3.3625405      5.5674273     -3.755632       92.209884    
      2180   96.783092      158.5          158.5          158.5         -0.37537683    -2.7374761      5.1332995     -3.5219539      96.783092    
      2200   84.40943       158.5          158.5          158.5         -4.0511122     -4.0741348     -3.7380388     -4.3411631      84.40943     
      2220   100.91959      158.5          158.5          158.5         -1.2532646     -3.5283966      2.6780966     -2.9094939      100.91959    
      2240   88.298708      158.5          158.5          158.5          0.31027944    -1.7006293      4.8585546     -2.227087       88.298708    
      2260   88.890375      158.5          158.5          158.5         -2.4014663     -2.4132557     -1.8240761     -2.967067       88.890375    
      2280   94.367808      158.5          158.5          158.5         -0.3360077     -1.4581161     -0.46081377     0.91090676     94.367808    
      2300   90.817523      158.5          158.5          158.5          1.728503       1.5033669      1.2367902      2.4453519      90.817523    
      2320   86.488349      158.5          158.5          158.5         -2.5588408     -2.6061333     -2.6837091     -2.3866802      86.488349    
      2340   95.042634      158.5          158.5          158.5         -0.54285396    -1.690735       0.54196349    -0.47979039     95.042634    
      2360   84.888497      158.5          158.5          158.5          2.4551473      2.7987277      0.68896031     3.8777538      84.888497    
      2380   94.177235      158.5          158.5          158.5         -3.7289749     -0.35545351    -8.2811893     -2.550282       94.177235    
      2400   85.305503      158.5          158.5          158.5         -1.0265278     -1.7356606     -2.2107774      0.86685452     85.305503    
      2420   92.306293      158.5          158.5          158.5          2.273422       0.67667593     2.676809       3.4667812      92.306293    
      2440   96.543288      158.5          158.5          158.5         -2.6625967      2.1552676     -7.2272663     -2.9157914      96.543288    
      2460   79.470887      158.5          158.5          158.5         -0.021508635    2.1327702     -5.4602341      3.2629379      79.470887    
      2480   88.112415      158.5          158.5          158.5          2.5875843      0.42195501     3.7459081      3.5948896      88.112415    
      2500   89.136215      158.5          158.5          158.5         -2.0672385      0.25991645    -1.9591196     -4.5025124      89.136215    
      2520   80.837662      158.5          158.5          158.5         -1.5144573      0.91490548    -4.2681729     -1.1901046      80.837662    
      2540   81.426806      158.5          158.5          158.5          1.5304225      1.4849744      1.313493       1.7928003      81.426806    
      2560   84.15062       158.5          158.5          158.5         -3.7993361     -2.77696       -2.56125       -6.0597982      84.15062     
      2580   74.524887      158.5          158.5          158.5         -3.5779483     -2.1097159     -3.4711005     -5.1530286      74.524887    
      2600   82.966093      158.5          158.5          158.5          1.180949       0.8773194      1.7545434      0.9109842      82.966093    
      2620   84.271477      158.5          158.5          158.5         -3.7531305     -3.2032296     -3.6160966     -4.4400654      84.271477    
      2640   71.926833      158.5          158.5          158.5         -4.0262646     -4.8048474     -3.5638807     -3.7100658      71.926833    
      2660   82.87343       158.5          158.5          158.5          2.7090259      1.8501111      5.463003       0.81396348     82.87343     
      2680   84.953586      158.5          158.5          158.5         -2.4785227     -2.2886394     -2.4754618     -2.6714669      84.953586    
      2700   90.920356      158.5          158.5          158.5         -5.6498753     -7.1290665     -5.878137      -3.9424224      90.920356    
      2720   74.646979      158.5          158.5          158.5          2.5983049     -0.1057363      5.3747186      2.5259325      74.646979    
      2740   85.199817      158.5          158.5          158.5         -2.6524763     -5.3867586      0.84893165    -3.4196021      85.199817    
      2760   89.240076      158.5          158.5          158.5         -5.9678138     -7.9786927     -5.09179       -4.8329586      89.240076    
      2780   96.595942      158.5          158.5          158.5          3.3612357     -0.075460778    6.5692892      3.5898786      96.595942    
      2800   86.599185      158.5          158.5          158.5         -2.1134189     -7.4351506      2.023293      -0.92839917     86.599185    
      2820   94.916565      158.5          158.5          158.5         -2.5988308     -4.8773579     -0.67752553    -2.241609       94.916565    
      2840   108.11912      158.5          158.5          158.5          6.7035008      5.7978983      9.9884768      4.3241272      108.11912    
      2860   90.044793      158.5          158.5          158.5          0.23171177    -0.94091305     1.6017625      0.03428581     90.044793    
      2880   92.279789      158.5          158.5          158.5          0.40676644    -0.16441949     0.18555607     1.1991627      92.279789    
      2900   99.005571      158.5          158.5          158.5          6.4869571      6.1351869      6.7363711      6.5893134      99.005571    
      2920   89.092873      158.5          158.5          158.5         -1.6284043     -1.1857143     -2.8956024     -0.80389631     89.092873    
      2940   84.038725      158.5          158.5          158.5         -0.66439093     0.82459686    -1.8479061     -0.9698635      84.038725    
      2960   92.97363       158.5          158.5          158.5          4.807018       5.4000768      4.336481       4.6844962      92.97363     
      2980   94.016783      158.5          158.5          158.5         -2.3870753     -0.19036686    -4.4691556     -2.5017035      94.016783    
      3000   94.602024      158.5          158.5          158.5         -0.52306389     3.8744295     -3.6129318     -1.8306894      94.602024    
      3020   95.585755      158.5          158.5          158.5          4.9212414      6.9050429      3.4257711      4.4329103      95.585755    
      3040   90.663518      158.5          158.5          158.5         -2.9775428     -0.47757008    -3.9014294     -4.5536289      90.663518    
      3060   92.751012      158.5          158.5          158.5         -0.93303059     3.739981      -2.0520579     -4.4870148      92.751012    
      3080   86.561072      158.5          158.5          158.5          3.7786291      3.3564487      4.8337263      3.1457124      86.561072    
      3100   81.037152      158.5          158.5          158.5         -5.149426      -4.2108241     -5.1101403     -6.1273137      81.037152    
      3120   98.197187      158.5          158.5          158.5         -1.5413833      1.6195285     -2.1196787     -4.1239997      98.197187    
      3140   80.426718      158.5          158.5          158.5          3.129811       2.5011204      4.5475839      2.3407288      80.426718    
      3160   77.219121      158.5          158.5          158.5         -5.6635715     -7.3589125     -3.8146152     -5.8171869      77.219121    
      3180   84.68829       158.5          158.5          158.5          0.68677305    -0.55463265     1.3933305      1.2216213      84.68829     
      3200   82.046292      158.5          158.5          158.5          4.0444957      1.7852157      5.3848224      4.9634492      82.046292    
      3220   81.062566      158.5          158.5          158.5         -2.7043773     -3.2137382     -0.82872195    -4.0706717      81.062566    
      3240   93.255138      158.5          158.5          158.5          2.5593083      1.505827       2.1141382      4.0579597      93.255138    
      3260   87.361316      158.5          158.5          158.5          4.2385122      1.6123921      2.5900076      8.513137       87.361316    
      3280   86.346713      158.5          158.5          158.5         -0.96094069    -1.1469566      0.19846936    -1.9343348      86.346713    
      3300   89.237217      158.5          158.5          158.5          1.0495964      1.2735432      1.6456483      0.22959767     89.237217    
      3320   95.961741      158.5          158.5          158.5          3.4857016      1.8296147      1.1382355      7.4892546      95.961741    
      3340   76.163195      158.5          158.5          158.5         -0.21876427    -3.38765        0.57993773     2.1514195      76.163195    
      3360   88.097805      158.5          158.5          158.5         -1.7034593      0.35974143    -1.3402297     -4.1298897      88.097805    
      3380   92.247699      158.5          158.5          158.5          2.7528656      5.59202        0.50060587     2.165971       92.247699    
      3400   86.267937      158.5          158.5          158.5         -0.80523169    -2.2003714      0.23817891    -0.45350262     86.267937    
      3420   93.999523      158.5          158.5          158.5         -3.2241862     -4.6816767     -1.7445056     -3.2463764      93.999523    
      3440   90.290323      158.5          158.5          158.5          3.4652037      5.1037942      1.8808799      3.4109369      90.290323    
      3460   89.852025      158.5          158.5          158.5          0.87967577     1.0583894      1.7759395     -0.1953016      89.852025    
      3480   92.319584      158.5          158.5          158.5         -1.237001      -2.269632      -0.41744472    -1.0239263      92.319584    
      3500   90.981514      158.5          158.5          158.5          3.7588166      4.6071544      2.7634287      3.9058666      90.981514    
      3520   106.09195      158.5          158.5          158.5         -0.12129936     1.4186465      1.4221544     -3.204699       106.09195    
      3540   102.3533       158.5          158.5          158.5         -3.2686619     -3.9228834     -1.4480127     -4.4350897      102.3533     
      3560   108.664        158.5          158.5          158.5          0.73464449     2.1116398     -0.92203965     1.0143333      108.664      
      3580   101.55134      158.5          158.5          158.5          0.16450853     0.54788688    -0.53202461     0.4776633      101.55134    
      3600   101.07279      158.5          158.5          158.5         -2.8771176     -4.5823547     -1.5520192     -2.4969789      101.07279    
      3620   85.8809        158.5          158.5          158.5          2.0237469      3.5779426      0.97384223     1.5194559      85.8809      
      3640   92.351434      158.5          158.5          158.5          0.3476628      0.73165851     0.33331965    -0.021989776    92.351434    
      3660   94.403762      158.5          158.5          158.5         -5.296446      -6.0688535     -4.4850506     -5.335434       94.403762    
      3680   94.464522      158.5          158.5          158.5          1.1840528      1.8812825      0.54913815     1.1217376      94.464522    
      3700   92.453787      158.5          158.5          158.5         -0.92192482    -1.3218535     -1.9403138      0.49639286     92.453787    
      3720   91.100107      158.5          158.5          158.5         -4.6352511     -6.0965387     -5.0259407     -2.7832741      91.100107    
      3740   91.346892      158.5          158.5          158.5          4.7634454      4.2375844      5.5371942      4.5155576      91.346892    
      3760   90.33592       158.5          158.5          158.5          0.84842049     1.0089859     -0.3970547      1.9333303      90.33592     
      3780   91.584005      158.5          158.5          158.5         -2.848415      -1.5494869     -5.8423601     -1.153398       91.584005    
      3800   86.412716      158.5          158.5          158.5          5.7887438      5.4398574      7.1865788      4.7397953      86.412716    
      3820   83.292206      158.5          158.5          158.5         -0.057749497   -2.189394       1.3934558      0.62268964     83.292206    
      3840   92.805558      158.5          158.5          158.5         -2.9330207     -2.6490471     -5.0572875     -1.0927275      92.805558    
      3860   87.106616      158.5          158.5          158.5          4.7279664      3.3427254      6.8350588      4.0061148      87.106616    
      3880   75.921278      158.5          158.5          158.5          0.67104136    -2.8633577      4.4807475      0.3957343      75.921278    
      3900   82.23202       158.5          158.5          158.5         -2.1245354     -0.87995158    -2.8125355     -2.681119       82.23202     
      3920   93.018505      158.5          158.5          158.5          3.9925196      6.1510195      3.1560845      2.6704549      93.018505    
      3940   83.803762      158.5          158.5          158.5          0.0098456548  -1.1604412      1.5214647     -0.3314866      83.803762    
      3960   82.163209      158.5          158.5          158.5         -3.3122109     -2.5378848     -3.3846182     -4.0141298      82.163209    
      3980   77.669487      158.5          158.5          158.5          4.4005724      6.8438158      5.1021351      1.2557663      77.669487    
      4000   87.707862      158.5          158.5          158.5         -0.72767444    -0.53474594     1.9982885     -3.6465659      87.707862    
      4020   82.249871      158.5          158.5          158.5         -4.4483523     -4.5131575     -4.782121      -4.0497785      82.249871    
      4040   87.775828      158.5          158.5          158.5          4.8434682      8.1413064      4.0323776      2.3567206      87.775828    
      4060   85.22454       158.5          158.5          158.5         -0.91072981     2.1376799     -2.617519      -2.2523504      85.22454     
      4080   82.60568       158.5          158.5          158.5         -3.376833      -3.0434295     -5.6676315     -1.4194379      82.60568     
      4100   93.132466      158.5          158.5          158.5          4.645339       5.5510131      3.8218127      4.5631913      93.132466    
      4120   88.382218      158.5          158.5          158.5         -2.243647      -1.6352278     -2.4335061     -2.6622072      88.382218    
      4140   86.331144      158.5          158.5          158.5         -3.9447009     -3.4307481     -7.8100441     -0.59331055     86.331144    
      4160   85.861924      158.5          158.5          158.5          2.0288378      1.7565527     -0.41268656     4.7426473      85.861924    
      4180   93.548882      158.5          158.5          158.5         -2.2698953     -2.8973708     -2.1074668     -1.8048483      93.548882    
      4200   99.780227      158.5          158.5          158.5         -4.2554694     -3.4851683     -6.7351312     -2.5461086      99.780227    
      4220   88.178063      158.5          158.5          158.5          1.3401785      3.3167663     -1.1553236      1.8590928      88.178063    
      4240   92.705891      158.5          158.5          158.5          2.2073058      1.9533377      3.5625235      1.1060563      92.705891    
      4260   98.762962      158.5          158.5          158.5         -2.352885      -3.8021605     -0.44529186    -2.8112025      98.762962    
      4280   87.815123      158.5          158.5          158.5          1.0188329      2.3726448     -0.96862541     1.6524794      87.815123    
      4300   91.274276      158.5          158.5          158.5          2.9004071      2.3480398      3.0408616      3.3123198      91.274276    
      4320   103.93492      158.5          158.5          158.5         -4.1249249     -7.9253739     -2.4489188     -2.000482       103.93492    
      4340   84.256091      158.5          158.5          158.5          0.19726579    -1.3210233      2.4339923     -0.52117163     84.256091    
      4360   78.454743      158.5          158.5          158.5          3.7177103      4.3190109      4.7416407      2.0924793      78.454743    
      4380   96.975739      158.5          158.5          158.5         -1.9899129     -4.5584434      0.29351816    -1.7048134      96.975739    
      4400   95.116663      158.5          158.5          158.5          1.79032       -0.86370111     5.4862498      0.74841119     95.116663    
      4420   85.070603      158.5          158.5          158.5          2.8450582      2.6346703      5.6115763      0.28892806     85.070603    
      4440   83.673916      158.5          158.5          158.5         -1.1582238     -0.80187285    -0.28756381    -2.3852348      83.673916    
      4460   85.544246      158.5          158.5          158.5          1.5760037      1.5000507      2.5478085      0.6801521      85.544246    
      4480   79.710143      158.5          158.5          158.5          3.2778693      2.4899894      5.1176673      2.2259513      79.710143    
      4500   87.172632      158.5          158.5          158.5         -1.1742402     -2.4963909     -1.6207783      0.59444867     87.172632    
      4520   83.821218      158.5          158.5          158.5         -0.24263236     0.96781383    -1.9671401      0.27142917     83.821218    
      4540   85.783326      158.5          158.5          158.5          3.6386805      5.1507159      3.0927924      2.6725333      85.783326    
      4560   96.807389      158.5          158.5          158.5         -2.6279037     -3.2219937     -2.3416139     -2.3201036      96.807389    
      4580   85.87976       158.5          158.5          158.5         -0.30165531     0.16378147    -1.0626243     -0.0061231504   85.87976     
      4600   88.730982      158.5          158.5          158.5          4.7508268      7.9331964      1.6671701      4.6521138      88.730982    
      4620   91.022703      158.5          158.5          158.5         -4.7947299     -3.8016868     -7.789838      -2.7926651      91.022703    
      4640   94.807743      158.5          158.5          158.5          0.60643926     0.6164704      1.0767612      0.1260862      94.807743    
      4660   84.748231      158.5          158.5          158.5          5.1347511      7.807434       3.6622217      3.9345978      84.748231    
      4680   91.886294      158.5          158.5          158.5         -5.5573        -2.9883206     -9.6996222     -3.9839572      91.886294    
      4700   85.569434      158.5          158.5          158.5          1.4987273      2.5853822      1.9582781     -0.047478418    85.569434    
      4720   86.379782      158.5          158.5          158.5          4.3745382      2.468514       7.4281193      3.2269812      86.379782    
      4740   84.198517      158.5          158.5          158.5         -4.423277      -6.0417018     -4.3679648     -2.8601644      84.198517    
      4760   91.23543       158.5          158.5          158.5          0.98824625     3.459855       0.16958307    -0.66469931     91.23543     
      4780   87.233391      158.5          158.5          158.5          3.4735868      4.0220189      4.4391215      1.9596201      87.233391    
      4800   90.126845      158.5          158.5          158.5         -3.8092143     -8.5191447     -1.7067738     -1.2017244      90.126845    
      4820   90.932418      158.5          158.5          158.5         -0.26921534    -1.2476074     -0.27024947     0.71021087     90.932418    
      4840   85.666093      158.5          158.5          158.5          2.690987       5.0677242      2.0571101      0.94812653     85.666093    
      4860   94.247338      158.5          158.5          158.5         -5.3893132     -7.9756868     -5.548188      -2.6440648      94.247338    
      4880   94.838846      158.5          158.5          158.5         -1.8850153     -4.5552302     -2.1408145      1.0409989      94.838846    
      4900   86.995869      158.5          158.5          158.5          1.2542182      0.12935107     1.2435091      2.3897946      86.995869    
      4920   88.41731       158.5          158.5          158.5         -8.3527175     -8.7165612     -9.6459601     -6.6956314      88.41731     
      4940   86.019517      158.5          158.5          158.5         -2.6512153     -2.72465       -2.7451223     -2.4838737      86.019517    
      4960   88.722568      158.5          158.5          158.5          0.23917233    -2.0191455      2.557394       0.17926848     88.722568    
      4980   86.201749      158.5          158.5          158.5         -7.4268858     -10.526699     -6.6493552     -5.104603       86.201749    
      5000   78.936601      158.5          158.5          158.5          0.52820149     3.9668346     -2.1183042     -0.26392586     78.936601    
      5020   80.329602      158.5          158.5          158.5          1.206541       3.1026455      1.2454184     -0.72844075     80.329602    
      5040   85.123153      158.5          158.5          158.5         -4.342327      -7.1807216     -4.0720131     -1.7742464      85.123153    
      5060   79.259476      158.5          158.5          158.5          1.6504224      4.6981078     -1.9060809      2.1592402      79.259476    
      5080   78.886814      158.5          158.5          158.5          0.60822993     6.1497369     -1.3129113     -3.0121358      78.886814    
      5100   92.44029       158.5          158.5          158.5         -3.5024245     -2.4452373     -3.0881848     -4.9738513      92.44029     
      5120   77.895234      158.5          158.5          158.5         -0.48343505    -0.47729766    -2.553491       1.5804835      77.895234    
      5140   79.446133      158.5          158.5          158.5          0.93626962     3.6534455     -2.1030425      1.2584059      79.446133    
      5160   84.285509      158.5          158.5          158.5         -1.7157151      3.0026112     -4.4690149     -3.6807417      84.285509    
      5180   80.406605      158.5          158.5          158.5         -1.1031954     -0.90785267    -1.7825718     -0.61916159     80.406605    
      5200   76.982288      158.5          158.5          158.5          2.6012227     -1.3918735      2.3570675      6.8384742      76.982288    
      5220   91.708832      158.5          158.5          158.5         -0.59546151     0.36663411    -3.047182       0.89416338     91.708832    
      5240   81.408055      158.5          158.5          158.5         -0.9035425      1.8108271     -2.2773223     -2.2441323      81.408055    
      5260   88.243368      158.5          158.5          158.5          1.8634933     -1.1913178      2.3998764      4.3819213      88.243368    
      5280   91.699751      158.5          158.5          158.5         -2.0360719     -4.5346599     -3.4496071      1.8760514      91.699751    
      5300   86.11948       158.5          158.5          158.5         -1.5739286      2.6240573     -5.1990991     -2.1467441      86.11948     
      5320   86.903101      158.5          158.5          158.5          0.88502631     2.1284832     -0.16903115     0.69562688     86.903101    
      5340   90.205183      158.5          158.5          158.5         -1.1367429     -4.5060336     -0.54691757     1.6427225      90.205183    
      5360   83.400653      158.5          158.5          158.5          0.44571693    -0.31191181    -0.088734013    1.7377966      83.400653    
      5380   94.241233      158.5          158.5          158.5          2.6530811      3.2213986      1.6080369      3.1298079      94.241233    
      5400   87.080771      158.5          158.5          158.5          0.78410404    -0.29693688     2.3351537      0.31409531     87.080771    
      5420   83.259484      158.5          158.5          158.5         -0.029792391   -1.6193594      2.1327665     -0.60278421     83.259484    
      5440   81.823787      158.5          158.5          158.5          2.8743649      1.8312743      2.7809501      4.0108703      81.823787    
      5460   93.975838      158.5          158.5          158.5         -0.50982349     0.46481945    -2.5801866      0.58589665     93.975838    
      5480   83.816621      158.5          158.5          158.5         -2.2493668     -0.094657745   -2.7930672     -3.8603754      83.816621    
      5500   79.937775      158.5          158.5          158.5          3.3393969      4.2026415      3.3712612      2.444288       79.937775    
      5520   79.995294      158.5          158.5          158.5         -0.22511948     1.647626      -3.0998711      0.77688668     79.995294    
      5540   78.2418        158.5          158.5          158.5         -2.3676789      0.42010726    -3.6662873     -3.8568566      78.2418      
      5560   75.842467      158.5          158.5          158.5          3.8864681      3.7668637      4.5841685      3.308372       75.842467    
      5580   76.124989      158.5          158.5          158.5         -0.934987      -1.9178507     -2.1445224      1.2574121      76.124989    
      5600   78.940233      158.5          158.5          158.5         -2.5656385     -2.9527972     -2.0212694     -2.7228489      78.940233    
      5620   80.717974      158.5          158.5          158.5          2.8828889      3.6664645      2.3988901      2.5833121      80.717974    
      5640   79.644347      158.5          158.5          158.5         -3.4322678     -3.7671898     -3.5695623     -2.9600514      79.644347    
      5660   70.107736      158.5          158.5          158.5         -2.3694458     -3.0210659     -1.0240743     -3.0631971      70.107736    
      5680   73.586644      158.5          158.5          158.5          1.1062608     -0.25574513     1.0324207      2.5421067      73.586644    
      5700   83.128264      158.5          158.5          158.5         -5.142398      -5.0937698     -6.352809      -3.9806154      83.128264    
      5720   82.462582      158.5          158.5          158.5         -2.0420019     -2.3176408     -0.28428801    -3.524077       82.462582    
      5740   75.713959      158.5          158.5          158.5          1.9379309     -0.72716309     4.0462937      2.4946621      75.713959    
      5760   83.710005      158.5          158.5          158.5         -2.2912873     -2.7094765     -2.1965467     -1.9678389      83.710005    
      5780   85.025673      158.5          158.5          158.5          1.3615857      3.4124012      0.63683642     0.03551956     85.025673    
      5800   90.510763      158.5          158.5          158.5          4.3884347      1.5298918      7.1271765      4.5082357      90.510763    
      5820   81.927356      158.5          158.5          158.5          0.056286397   -1.4196809      2.1999918     -0.61145174     81.927356    
      5840   85.094078      158.5          158.5          158.5          1.2149371      2.5256633     -0.51022181     1.6293698      85.094078    
      5860   94.417805      158.5          158.5          158.5          3.9654873      2.8761693      2.9934758      6.0268169      94.417805    
      5880   85.540012      158.5          158.5          158.5         -0.2067499     -1.7053927      1.5921505     -0.50700758     85.540012    
      5900   87.082988      158.5          158.5          158.5          0.3796366     -0.53896139     0.79260688     0.88526429     87.082988    
      5920   93.599082      158.5          158.5          158.5          3.9257346      2.8687033      3.760073       5.1484275      93.599082    
      5940   78.547735      158.5          158.5          158.5         -0.63121111    -0.93630813     0.66724512    -1.6245703      78.547735    
      5960   91.713591      158.5          158.5          158.5          0.22133166     1.0519208     -0.22530581    -0.16262001     91.713591    
      5980   89.291434      158.5          158.5          158.5          3.2652587      3.1008268      1.8002644      4.894685       89.291434    
      6000   90.728043      158.5          158.5          158.5         -1.6288447     -2.7836888      0.32276878    -2.425614       90.728043    
      6020   93.814151      158.5          158.5          158.5          0.48235667     1.4989735      0.67543638    -0.72733984     93.814151    
      6040   91.192398      158.5          158.5          158.5          3.1706355      2.7716077      2.944925       3.7953739      91.192398    
      6060   90.326955      158.5          158.5          158.5         -1.267959      -1.6968655     -0.94739935    -1.1596122      90.326955    
      6080   97.316215      158.5          158.5          158.5          1.3082313      3.9911738     -1.1648605      1.0983806      97.316215    
      6100   89.663714      158.5          158.5          158.5          3.4134372      4.1227392      3.0009516      3.1166209      89.663714    
      6120   88.481382      158.5          158.5          158.5          0.39829365     1.5325565      1.5863556     -1.9240312      88.481382    
      6140   91.808766      158.5          158.5          158.5          2.2935065      6.5794667     -1.5474109      1.8484637      91.808766    
      6160   100.61405      158.5          158.5          158.5          3.6370325      5.5047512      1.7221742      3.6841721      100.61405    
      6180   104.58618      158.5          158.5          158.5          0.19878853    -0.49420678     2.967892      -1.8773196      104.58618    
      6200   95.55543       158.5          158.5          158.5          0.028053699    1.2808819     -0.066528785   -1.130192       95.55543     
      6220   101.63408      158.5          158.5          158.5          2.2076323      2.2893005      1.3693627      2.9642336      101.63408    
      6240   92.606672      158.5          158.5          158.5         -1.2146868     -3.2160444      1.3355144     -1.7635305      92.606672    
      6260   98.246521      158.5          158.5          158.5         -2.6307393     -5.5209065      0.14355424    -2.5148655      98.246521    
      6280   93.819712      158.5          158.5          158.5          2.7658477      2.0206545      2.7008655      3.576023       93.819712    
      6300   103.6095       158.5          158.5          158.5         -1.7033741     -3.0398518     -0.37499098    -1.6952794      103.6095     
      6320   93.917765      158.5          158.5          158.5         -2.1023642     -2.7219969      0.28674143    -3.8718371      93.917765    
      6340   99.979835      158.5          158.5          158.5          3.6042932      1.7824805      3.4778711      5.552528       99.979835    
      6360   98.577422      158.5          158.5          158.5         -1.5059118     -2.0476701      0.65517015    -3.1252353      98.577422    
      6380   108.043        158.5          158.5          158.5         -2.5646833     -3.0303999     -0.54463141    -4.1190186      108.043      
      6400   95.048782      158.5          158.5          158.5          2.8954553      1.9341927      0.87343671     5.8787365      95.048782    
      6420   99.720816      158.5          158.5          158.5         -1.1094447     -1.290033       0.11794309    -2.1562443      99.720816    
      6440   97.886818      158.5          158.5          158.5         -2.0716152      0.38220037     0.27635949    -6.8734054      97.886818    
      6460   94.711707      158.5          158.5          158.5          1.3321632      0.84532673     1.2391352      1.9120276      94.711707    
      6480   84.840373      158.5          158.5          158.5         -0.48354949    -0.4994482      0.00017776736 -0.95137803     84.840373    
      6500   90.876405      158.5          158.5          158.5         -2.2270107     -0.70669183    -0.87499386    -5.0993465      90.876405    
      6520   86.986256      158.5          158.5          158.5          2.7094435      2.510572       2.5305118      3.0872467      86.986256    
      6540   101.13486      158.5          158.5          158.5          1.4450302      1.0097458      0.39643202     2.9289128      101.13486    
      6560   87.273896      158.5          158.5          158.5         -2.3305734     -2.5850632     -2.8473331     -1.5593237      87.273896    
      6580   93.502574      158.5          158.5          158.5          2.6963227      2.5923525      1.1163245      4.3802911      93.502574    
      6600   90.255412      158.5          158.5          158.5          1.3464171      3.7411603     -0.66011119     0.95820225     90.255412    
      6620   94.584395      158.5          158.5          158.5         -3.8961437     -2.4989959     -4.4080066     -4.7814286      94.584395    
      6640   84.968493      158.5          158.5          158.5          2.9792528      2.4600317      2.26323        4.2144966      84.968493    
      6660   81.640606      158.5          158.5          158.5          1.0053145      0.63644325     2.201584       0.17791635     81.640606    
      6680   75.079494      158.5          158.5          158.5         -2.0491298      0.19297132    -0.92238902    -5.4179718      75.079494    
      6700   86.798599      158.5          158.5          158.5          3.1081154      2.7813581      4.1409684      2.4020198      86.798599    
      6720   81.916855      158.5          158.5          158.5          0.22595523    -2.9583501      4.4958789     -0.85966311     81.916855    
      6740   78.996487      158.5          158.5          158.5         -0.87661454    -3.5193712      2.5568213     -1.6672937      78.996487    
      6760   80.397356      158.5          158.5          158.5          3.1039697      2.1323487      4.6191694      2.5603908      80.397356    
      6780   93.450798      158.5          158.5          158.5          0.071070005   -0.53997281     4.0808013     -3.3276185      93.450798    
      6800   85.381636      158.5          158.5          158.5         -0.10981185    -1.2801716      2.6483308     -1.6975948      85.381636    
      6820   89.151918      158.5          158.5          158.5          2.6992322     -0.16394216     2.9706778      5.290961       89.151918    
      6840   93.336932      158.5          158.5          158.5          0.34336222     0.79396004     2.2167061     -1.9805795      93.336932    
      6860   93.576086      158.5          158.5          158.5         -1.028483       1.9565076     -0.33477411    -4.7071825      93.576086    
      6880   88.131856      158.5          158.5          158.5          2.7462706      0.83292519     3.1930001      4.2128866      88.131856    
      6900   94.011712      158.5          158.5          158.5          1.6997953      0.9540433      2.8368971      1.3084455      94.011712    
      6920   93.704165      158.5          158.5          158.5          0.44477832     4.8844733     -0.060296975   -3.4898413      93.704165    
      6940   92.335516      158.5          158.5          158.5          4.4833803      7.0669443      2.5358665      3.8473301      92.335516    
      6960   92.955534      158.5          158.5          158.5          1.4376503      0.61034864     2.0114433      1.6911589      92.955534    
      6980   92.499539      158.5          158.5          158.5         -0.83884969     0.59120199    -1.5565202     -1.5512309      92.499539    
      7000   100.87124      158.5          158.5          158.5          2.2407632      3.1635504     -0.78827315     4.3470124      100.87124    
      7020   94.760189      158.5          158.5          158.5         -1.8405325     -1.8920662     -3.0992014     -0.53033009     94.760189    
      7040   100.63937      158.5          158.5          158.5         -3.2176983     -2.6084563     -4.6429301     -2.4017086      100.63937    
      7060   101.02431      158.5          158.5          158.5         -0.74687586    -1.8499597     -3.2110361      2.8203682      101.02431    
      7080   96.928738      158.5          158.5          158.5         -1.5852767      0.029861076   -3.3720955     -1.4135956      96.928738    
      7100   105.84596      158.5          158.5          158.5         -3.7222881     -3.0714556     -5.1823645     -2.9130442      105.84596    
      7120   110.04778      158.5          158.5          158.5         -2.8896192     -7.205481      -2.19694        0.7335633      110.04778    
      7140   105.62468      158.5          158.5          158.5         -0.59029481    -2.723802       1.7477727     -0.79485521     105.62468    
      7160   93.921795      158.5          158.5          158.5         -3.5497972     -2.898704      -3.5432814     -4.2074063      93.921795    
      7180   98.010269      158.5          158.5          158.5         -1.632922      -4.5863536     -1.604822       1.2924096      98.010269    
      7200   103.29765      158.5          158.5          158.5          2.4865577      1.6016037      3.4806187      2.3774507      103.29765    
      7220   103.81272      158.5          158.5          158.5         -3.4714825     -3.7928105     -2.6486091     -3.9730278      103.81272    
      7240   90.987318      158.5          158.5          158.5          0.56290773     0.080871584    0.11155327     1.4962983      90.987318    
      7260   101.19689      158.5          158.5          158.5          1.7619352      2.0056898      5.1815994     -1.9014836      101.19689    
      7280   105.70369      158.5          158.5          158.5         -3.8941857     -5.2038738     -0.44901534    -6.0296681      105.70369    
      7300   100.99732      158.5          158.5          158.5          2.705693       0.83061925     4.7090002      2.5774594      100.99732    
      7320   80.450907      158.5          158.5          158.5          2.9452619      4.0414308      4.8820194     -0.087664543    80.450907    
      7340   95.152421      158.5          158.5          158.5         -0.098068199    0.62071535     1.0753126     -1.9902326      95.152421    
      7360   97.296416      158.5          158.5          158.5          5.518582       6.3603246      5.2045126      4.9909086      97.296416    
      7380   86.020186      158.5          158.5          158.5          1.9161141      4.8874491     -0.46129345     1.3221865      86.020186    
      7400   90.534822      158.5          158.5          158.5         -1.4917635     -0.47204013    -4.0477713      0.044520838    90.534822    
      7420   90.040104      158.5          158.5          158.5          0.99504026     1.417588      -0.11021068     1.6777435      90.040104    
      7440   88.732074      158.5          158.5          158.5         -1.7555369     -1.4654869     -2.5001253     -1.3009986      88.732074    
      7460   84.69241       158.5          158.5          158.5         -2.6962003     -3.2593021     -5.551286       0.72198726     84.69241     
      7480   89.420802      158.5          158.5          158.5          0.096023151    1.9543548     -3.4879259      1.8216406      89.420802    
      7500   86.326626      158.5          158.5          158.5          1.3317192      4.6078617     -1.7780539      1.1653498      86.326626    
      7520   84.645892      158.5          158.5          158.5         -0.50499347    -1.7194849     -2.6783812      2.8828856      84.645892    
      7540   90.477153      158.5          158.5          158.5         -0.35780667    -1.794834      -2.030756       2.7521701      90.477153    
      7560   88.832817      158.5          158.5          158.5          0.93641696     2.4079907      0.42593098    -0.024670745    88.832817    
      7580   88.386845      158.5          158.5          158.5         -1.2341946     -3.0343101     -0.24432439    -0.42394929     88.386845    
      7600   83.189148      158.5          158.5          158.5          0.15255408    -2.9554052      1.0437683      2.3692991      83.189148    
      7620   88.531972      158.5          158.5          158.5          1.0951052      1.883835       0.10557251     1.2959081      88.531972    
      7640   86.639922      158.5          158.5          158.5         -1.3071215      0.27607684    -3.213623      -0.98381827     86.639922    
      7660   83.206095      158.5          158.5          158.5         -0.42527272    -0.46304145     0.47470998    -1.2874867      83.206095    
      7680   92.035511      158.5          158.5          158.5         -1.4942147     -4.8516254      0.93084937    -0.56186803     92.035511    
      7700   86.454951      158.5          158.5          158.5         -2.8816392     -3.0183615     -3.070413      -2.556143       86.454951    
      7720   87.519534      158.5          158.5          158.5         -0.88342764     1.4712072     -0.68166447    -3.4398257      87.519534    
      7740   87.265213      158.5          158.5          158.5         -0.60901337    -1.828443       1.3083283     -1.3069254      87.265213    
      7760   95.017051      158.5          158.5          158.5         -0.75459123    -3.3761978      0.16205631     0.95036784     95.017051    
      7780   85.357469      158.5          158.5          158.5          0.98649689     4.4045548     -1.2387483     -0.20631591     85.357469    
      7800   81.832155      158.5          158.5          158.5          0.59419989     3.7458799     -0.99132003    -0.97196019     81.832155    
      7820   89.238066      158.5          158.5          158.5         -1.3985924     -3.3236464     -0.087837406   -0.78429337     89.238066    
      7840   88.3528        158.5          158.5          158.5         -0.56595485    -2.6157013      0.014394925    0.90344182     88.3528      
      7860   81.718751      158.5          158.5          158.5          0.88167694     2.5752667     -0.86327953     0.93304367     81.718751    
      7880   79.396447      158.5          158.5          158.5          0.36433593     3.5183609     -1.9782414     -0.44711166     79.396447    
      7900   80.670399      158.5          158.5          158.5          2.0105744      1.8430145      2.8395618      1.3491469      80.670399    
      7920   85.457555      158.5          158.5          158.5          3.534166       3.0825877      3.9850123      3.534898       85.457555    
      7940   74.422294      158.5          158.5          158.5          3.5867489      6.53493        1.2050159      3.0203009      74.422294    
      7960   80.632354      158.5          158.5          158.5          1.7677503      4.175421       1.3733147     -0.24548479     80.632354    
      7980   81.854687      158.5          158.5          158.5          1.0326582      1.920524       3.2144899     -2.0370391      81.854687    
      8000   79.320546      158.5          158.5          158.5          2.493165       3.7350179      1.81819        1.9262871      79.320546    
      8020   86.61822       158.5          158.5          158.5         -0.17435307     0.9973551     -1.7193665      0.19895221     86.61822     
      8040   91.983482      158.5          158.5          158.5          0.42851823     2.4115884      0.65704814    -1.7830819      91.983482    
      8060   90.464346      158.5          158.5          158.5          2.9644632      3.0344311      3.7216188      2.1373398      90.464346    
      8080   84.360233      158.5          158.5          158.5         -1.2782337     -4.1765675     -1.7996202      2.1414867      84.360233    
      8100   91.419294      158.5          158.5          158.5         -0.41834736    -2.0216982     -1.5726884      2.3393445      91.419294    
      8120   89.104053      158.5          158.5          158.5          1.2969574      1.0862281      1.5898693      1.2147749      89.104053    
      8140   90.241573      158.5          158.5          158.5         -3.2777982     -6.6733604     -2.0354124     -1.1246217      90.241573    
      8160   85.697602      158.5          158.5          158.5         -0.24134702    -4.5234433      0.71012354     3.0892787      85.697602    
      8180   93.233216      158.5          158.5          158.5          0.11857223     1.165049      -1.1922233      0.38289094     93.233216    
      8200   92.15945       158.5          158.5          158.5         -3.5260743     -1.5090266     -5.9353359     -3.1338606      92.15945     
      8220   89.816257      158.5          158.5          158.5          2.9133217      0.69041107     4.6865735      3.3629804      89.816257    
      8240   100.68851      158.5          158.5          158.5         -0.97954881    -2.6079197      0.041763073   -0.37248978     100.68851    
      8260   84.733374      158.5          158.5          158.5         -3.3677325     -2.1413206     -6.6551378     -1.306739       84.733374    
      8280   96.933416      158.5          158.5          158.5          3.7448805      5.6616969      1.9290733      3.6438713      96.933416    
      8300   92.314846      158.5          158.5          158.5         -2.1282199     -1.0374092     -1.9355505     -3.4117001      92.314846    
      8320   97.546058      158.5          158.5          158.5         -2.7286584     -3.6377745     -3.1370921     -1.4111087      97.546058    
      8340   92.668537      158.5          158.5          158.5          3.1038697      4.8256684      1.6864866      2.7994542      92.668537    
      8360   80.49201       158.5          158.5          158.5         -1.4788624      1.5314454     -3.4470526     -2.5209802      80.49201     
      8380   95.098377      158.5          158.5          158.5         -2.3195271     -1.4734718     -5.2505066     -0.2346028      95.098377    
      8400   87.323279      158.5          158.5          158.5          0.34814581     0.45200448     0.066985009    0.52544793     87.323279    
      8420   83.111         158.5          158.5          158.5         -1.000143       2.0357533     -3.610023      -1.4261591      83.111       
      8440   83.984761      158.5          158.5          158.5         -1.8696536     -0.32144796    -6.3907417      1.1032289      83.984761    
      8460   92.852448      158.5          158.5          158.5         -2.7285424     -3.2499061     -3.7225434     -1.2131777      92.852448    
      8480   92.041084      158.5          158.5          158.5         -1.6263422     -1.3933794     -1.7505397     -1.7351075      92.041084    
      8500   75.807633      158.5          158.5          158.5         -2.2669416     -1.9537033     -3.2305507     -1.6165706      75.807633    
      8520   85.519185      158.5          158.5          158.5         -1.7332918     -1.6044304     -1.97863       -1.6168149      85.519185    
      8540   76.565335      158.5          158.5          158.5          0.84557621    -0.48344847     0.67915443     2.3410227      76.565335    
      8560   90.013712      158.5          158.5          158.5         -1.7221252     -2.9186015     -1.338292      -0.90948213     90.013712    
      8580   76.705095      158.5          158.5          158.5          0.57395931     1.6554522      1.3759034     -1.3094776      76.705095    
      8600   91.712792      158.5          158.5          158.5          1.098599       1.9708963      1.1709303      0.15397034     91.712792    
      8620   84.812146      158.5          158.5          158.5         -0.84588379    -0.76958231    -0.84439935    -0.92366971     84.812146    
      8640   85.947332      158.5          158.5          158.5          1.5952867      0.85383651     4.9266208     -0.99459728     85.947332    
      8660   94.121027      158.5          158.5          158.5          0.54495401     1.0373873      2.8593723     -2.2618975      94.121027    
      8680   101.18093      158.5          158.5          158.5          0.32421471     1.6512352     -0.33651569    -0.34207539     101.18093    
      8700   94.074127      158.5          158.5          158.5          2.9305386      1.6396261      4.0150915      3.1368982      94.074127    
      8720   93.132399      158.5          158.5          158.5          1.3277939      0.67068919     3.6785467     -0.36585421     93.132399    
      8740   91.438636      158.5          158.5          158.5          1.257982       2.2764931      3.1183106     -1.6208578      91.438636    
      8760   105.38446      158.5          158.5          158.5          2.2497836      1.7321973      1.5057488      3.5114048      105.38446    
      8780   89.335918      158.5          158.5          158.5          3.2609219      2.0436695      3.0569071      4.6821892      89.335918    
      8800   100.55273      158.5          158.5          158.5          0.76451129     0.8552518      1.0382586      0.40002349     100.55273    
      8820   96.501167      158.5          158.5          158.5          0.42243608     1.3361266      0.35202187    -0.42084019     96.501167    
      8840   111.60872      158.5          158.5          158.5          2.5513723      4.4614558     -0.45705148     3.6497127      111.60872    
      8860   85.419408      158.5          158.5          158.5         -0.72224723    -1.9023471     -0.39126596     0.12687142     85.419408    
      8880   99.529936      158.5          158.5          158.5         -1.6014925     -1.7524031     -0.15727745    -2.8947969      99.529936    
      8900   96.173388      158.5          158.5          158.5          0.68825868     2.7290098     -1.3166271      0.65239342     96.173388    
      8920   102.13715      158.5          158.5          158.5         -1.9120913     -2.7582719     -3.3508869      0.37288475     102.13715    
      8940   96.314011      158.5          158.5          158.5         -1.2276009     -2.1193758     -0.86827049    -0.69515641     96.314011    
      8960   100.3195       158.5          158.5          158.5         -0.64946319    -0.80395411     0.22266697    -1.3671024      100.3195     
      8980   90.058487      158.5          158.5          158.5         -1.3347113     -0.54422514    -1.678472      -1.7814367      90.058487    
      9000   93.25606       158.5          158.5          158.5         -0.0075557911   1.359096      -0.88460124    -0.49716214     93.25606     
      9020   90.459291      158.5          158.5          158.5         -0.76219125    -1.5655706      0.3811221     -1.1021253      90.459291    
      9040   100.41467      158.5          158.5          158.5         -1.7546044     -1.0145727     -0.34882759    -3.9004128      100.41467    
      9060   87.524346      158.5          158.5          158.5         -0.09941629     1.9349508     -0.18421275    -2.0489869      87.524346    
      9080   93.621019      158.5          158.5          158.5          0.4820143      2.4121428     -0.38140476    -0.58469515     93.621019    
      9100   100.01612      158.5          158.5          158.5         -0.43946352    -2.0720297      1.1737939     -0.42015483     100.01612    
      9120   95.323942      158.5          158.5          158.5          1.6182834      0.84794166     3.6699608      0.33694762     95.323942    
      9140   84.581499      158.5          158.5          158.5          1.9298677      2.3466798      4.2732913     -0.83036807     84.581499    
      9160   92.118759      158.5          158.5          158.5         -0.88737387    -1.9048587      0.68550772    -1.4427707      92.118759    
      9180   89.277626      158.5          158.5          158.5          2.8758039      0.82672968     4.5786562      3.2220258      89.277626    
      9200   87.205917      158.5          158.5          158.5          2.4554663      2.970253       4.6111005     -0.21495473     87.205917    
      9220   96.29025       158.5          158.5          158.5         -0.15130564    -0.63048359     0.45514428    -0.2785776      96.29025     
      9240   95.077335      158.5          158.5          158.5          4.0504453      2.819033       3.2553461      6.076957       95.077335    
      9260   88.209459      158.5          158.5          158.5          1.6856015      2.1486167      0.98225345     1.9259344      88.209459    
      9280   102.55438      158.5          158.5          158.5         -0.047095662   -1.7923336      1.8341003     -0.18305367     102.55438    
      9300   103.88208      158.5          158.5          158.5          3.714562       4.6575384      3.10851        3.3776376      103.88208    
      9320   102.88312      158.5          158.5          158.5          0.29188885     2.9214223     -3.7946371      1.7488813      102.88312    
[...]
     48040  -4.1025276      158.5          158.5          158.5         -1.8250632     -1.6220167     -0.75621178    -3.0969612     -4.1025276    
     48060   2.0185095      158.5          158.5          158.5          0.242393      -0.17804868    -1.1389912      2.0442189      2.0185095    
     48080  -2.6418237      158.5          158.5          158.5          0.2076185     -2.3016198      2.064581       0.85989433    -2.6418237    
     48100   3.4260279      158.5          158.5          158.5         -0.78046455    -0.85621979    -1.2908811     -0.19429278     3.4260279    
     48120   4.0964297      158.5          158.5          158.5          3.6482544      4.2768331      2.0473522      4.620578       4.0964297    
     48140   9.3233466      158.5          158.5          158.5          0.58163509    -0.57401107     2.0097678      0.30914857     9.3233466    
     48160  -3.0493208      158.5          158.5          158.5         -1.0232436     -1.7499958     -1.557165       0.23742999    -3.0493208    
     48180   6.1538603      158.5          158.5          158.5         -0.5896894     -0.8372183     -1.2831345      0.35128457     6.1538603    
     48200   3.9598503      158.5          158.5          158.5         -1.5464261     -5.1630656      2.0850855     -1.5612981      3.9598503    
     48220   5.3913803      158.5          158.5          158.5         -1.4735782     -0.62492057     2.8036012     -6.5994151      5.3913803    
     48240   7.1526351      158.5          158.5          158.5          0.72720653     4.886523      -1.5551271     -1.1497762      7.1526351    
     48260   6.7725613      158.5          158.5          158.5         -6.3641479     -7.8628676     -6.9167577     -4.3128184      6.7725613    
     48280  -10.082315      158.5          158.5          158.5         -1.1456462     -4.796388       1.8588421     -0.49939273    -10.082315    
     48300   0.88639337     158.5          158.5          158.5         -0.028311936   -0.52466409     3.2449566     -2.8052283      0.88639337   
     48320   0.37894516     158.5          158.5          158.5         -2.641485      -1.0607457     -1.9416152     -4.9220941      0.37894516   
     48340  -4.4790089      158.5          158.5          158.5         -0.71806226    -0.25053283    -2.5351267      0.63147276    -4.4790089    
     48360  -3.7751238      158.5          158.5          158.5          1.5160283     -1.2801763      1.8206546      4.0076067     -3.7751238    
     48380  -3.8876516      158.5          158.5          158.5          1.091698       0.92495627     1.4588937      0.89124412    -3.8876516    
     48400  -1.9040895      158.5          158.5          158.5          1.8474638      4.704779       0.14933715     0.68827521    -1.9040895    
     48420   3.4084722      158.5          158.5          158.5          0.90137571     0.7997431     -1.6432977      3.5476817      3.4084722    
     48440  -2.7242         158.5          158.5          158.5          0.039313067    0.1042131     -0.74192803     0.75565413    -2.7242       
     48460  -3.8846996      158.5          158.5          158.5         -0.064802635   -0.12538909     3.1721539     -3.2411727     -3.8846996    
     48480   2.1682351      158.5          158.5          158.5          2.410298       0.60022145     2.017797       4.6128755      2.1682351    
     48500  -11.045739      158.5          158.5          158.5         -2.230682      -1.8517752     -4.5301664     -0.3101045     -11.045739    
     48520  -11.642526      158.5          158.5          158.5         -1.2247176     -0.21291397    -2.7776243     -0.68361453    -11.642526    
     48540  -5.5215876      158.5          158.5          158.5          0.34381514    -1.5571566      2.0728894      0.51571263    -5.5215876    
     48560  -1.3747916      158.5          158.5          158.5          0.25104814    -0.84139638     2.4872712     -0.89273043    -1.3747916    
     48580  -9.2953719      158.5          158.5          158.5          1.3932796      2.6654537     -1.20243        2.7168151     -9.2953719    
     48600   4.0634106      158.5          158.5          158.5          0.47909914     1.4145053     -0.44521537     0.46800752     4.0634106    
     48620  -3.4877163      158.5          158.5          158.5          0.9321568      0.3703861      3.1421088     -0.71602452    -3.4877163    
     48640  -4.9315419      158.5          158.5          158.5         -1.0669433     -0.39119624     0.57148045    -3.3811142     -4.9315419    
     48660   2.6474416      158.5          158.5          158.5          0.042303195    3.2407916     -4.4338717      1.3199897      2.6474416    
     48680  -2.684987       158.5          158.5          158.5          0.59850879     3.8232672      1.4185821     -3.446323      -2.684987     
     48700   0.032371169    158.5          158.5          158.5         -4.3028617     -6.360152       0.50513428    -7.0535675      0.032371169  
     48720  -6.2515152      158.5          158.5          158.5          0.97916488     0.29378985     2.4196756      0.22402921    -6.2515152    
     48740  -1.9987783      158.5          158.5          158.5          1.3634183      3.1393123     -2.5366997      3.4876423     -1.9987783    
     48760  -0.71838298     158.5          158.5          158.5          0.28453437     0.16827712    -0.17632739     0.86165338    -0.71838298   
     48780   8.7333877      158.5          158.5          158.5          1.650403       1.9227537      3.131424      -0.10296856     8.7333877    
     48800  -0.95555379     158.5          158.5          158.5          0.094491132   -0.74286366     1.4746218     -0.44828479    -0.95555379   
     48820  -0.80248623     158.5          158.5          158.5         -0.57227284    -0.92198189     0.6328548     -1.4276914     -0.80248623   
     48840  -0.87184881     158.5          158.5          158.5         -0.70005226    -0.87043244     1.2654937     -2.495218      -0.87184881   
     48860   8.2099858      158.5          158.5          158.5         -0.55614555    -1.0609387      1.7886994     -2.3961974      8.2099858    
     48880  -3.4032151      158.5          158.5          158.5          1.987385       0.60240347     0.87272437     4.4870271     -3.4032151    
     48900   11.356077      158.5          158.5          158.5          0.78579189     1.8884153     -0.53862326     1.0075837      11.356077    
     48920   0.43961122     158.5          158.5          158.5         -0.49468236     0.38878855     1.1758974     -3.0487331      0.43961122   
     48940  -1.8119879      158.5          158.5          158.5          0.44027114    -1.5726603     -0.9955579      3.8890316     -1.8119879    
     48960  -6.0893292      158.5          158.5          158.5         -0.50773984    -4.4984097     -1.9869091      4.9620993     -6.0893292    
     48980   6.5741246      158.5          158.5          158.5          0.19869404     0.22932405     0.10350322     0.26325484     6.5741246    
     49000   5.8085433      158.5          158.5          158.5          2.5364862      5.9617672      1.7137462     -0.066054898    5.8085433    
     49020  -4.4813479      158.5          158.5          158.5          0.24226579     0.2627371     -1.125415       1.5894753     -4.4813479    
     49040  -7.1460988      158.5          158.5          158.5         -0.076177684   -1.9701371     -1.2459738      2.9875778     -7.1460988    
     49060  -12.552811      158.5          158.5          158.5          0.51644337     1.140229      -1.409875       1.8189761     -12.552811    
     49080  -9.6959632      158.5          158.5          158.5         -2.142994      -2.0211654      1.221377      -5.6291934     -9.6959632    
     49100  -12.726092      158.5          158.5          158.5         -1.8838737     -0.98923822    -2.0962711     -2.5661118     -12.726092    
     49120  -9.8856584      158.5          158.5          158.5          1.0989177     -1.1248728     -0.7207531      5.142379      -9.8856584    
     49140  -9.586002       158.5          158.5          158.5         -2.3964674     -4.6738771     -2.1613175     -0.35420751    -9.586002     
     49160  -4.6072357      158.5          158.5          158.5          2.5093275      3.4621868     -0.33078911     4.3965849     -4.6072357    
     49180  -16.252981      158.5          158.5          158.5          0.87268811     0.728366      -2.0247168      3.9144151     -16.252981    
     49200  -0.71367546     158.5          158.5          158.5         -1.4515956     -3.624431      -2.3220712      1.5917155     -0.71367546   
     49220  -3.8212179      158.5          158.5          158.5          1.6655762      3.5413736     -2.1997851      3.6551401     -3.8212179    
     49240  -8.2640017      158.5          158.5          158.5          0.26096304     0.25900948     0.35727838     0.16660128    -8.2640017    
     49260  -14.003398      158.5          158.5          158.5          0.64293756    -0.80681751     0.13211068     2.6035195     -14.003398    
     49280  -2.8276697      158.5          158.5          158.5          0.5673837     -0.85572053     0.073902957    2.4839687     -2.8276697    
     49300  -19.013698      158.5          158.5          158.5          0.36065572     1.4121592     -0.66011837     0.32992635    -19.013698    
     49320  -3.1122407      158.5          158.5          158.5          0.4213409      2.3802184     -0.82221346    -0.29398227    -3.1122407    
     49340  -3.4630846      158.5          158.5          158.5         -1.5121841     -1.828402      -0.56081995    -2.1473304     -3.4630846    
     49360  -11.702928      158.5          158.5          158.5          1.713769      -0.75451796     3.6638005      2.2320244     -11.702928    
     49380   3.2781893      158.5          158.5          158.5          0.18617172     0.33016497    -1.3089868      1.537337       3.2781893    
     49400   0.86319668     158.5          158.5          158.5         -1.5819271      0.79288405    -0.84286804    -4.6957973      0.86319668   
     49420  -1.6811417      158.5          158.5          158.5          0.64790601     0.3407688      0.82184946     0.78109976    -1.6811417    
     49440  -7.1010456      158.5          158.5          158.5         -0.28620897    -2.8039139     -1.3745868      3.3198738     -7.1010456    
     49460  -3.4190702      158.5          158.5          158.5         -1.5860589     -3.2946738      0.25326395    -1.7167668     -3.4190702    
     49480   7.1404832      158.5          158.5          158.5         -1.8478559     -1.3933735     -2.205142      -1.9450524      7.1404832    
     49500  -6.423823       158.5          158.5          158.5         -0.30458503    -0.2664569     -3.0590489      2.4117507     -6.423823     
     49520  -1.4555035      158.5          158.5          158.5         -0.8351445     -3.0354288      0.35971479     0.17028049    -1.4555035    
     49540   7.6309904      158.5          158.5          158.5         -1.3372216     -2.2852197      1.4279002     -3.1543453      7.6309904    
     49560   6.6807726      158.5          158.5          158.5          3.7879861      4.9010458      3.6895867      2.7733257      6.6807726    
     49580  -5.03307        158.5          158.5          158.5         -1.1577824      1.2841216     -0.74504497    -4.0124238     -5.03307      
     49600   7.6579981      158.5          158.5          158.5         -1.0914886      0.0042877255  -1.8327389     -1.4460148      7.6579981    
     49620   11.341876      158.5          158.5          158.5         -0.58331931    -2.4322417      0.22038487     0.46189894     11.341876    
     49640  -5.4880958      158.5          158.5          158.5         -2.9632688     -5.0665433     -1.0864067     -2.7368565     -5.4880958    
     49660   3.8134916      158.5          158.5          158.5          0.77858737     3.4419029      0.9516462     -2.057787       3.8134916    
     49680   6.2456409      158.5          158.5          158.5         -0.83748452     0.32145903    -1.5890483     -1.2448643      6.2456409    
     49700   1.1131472      158.5          158.5          158.5          1.650327       2.3760997      0.43425814     2.1406233      1.1131472    
     49720   0.12132687     158.5          158.5          158.5          3.1701214      5.9259577      1.9493817      1.6350248      0.12132687   
     49740   3.5295523      158.5          158.5          158.5          0.015060255    3.5829032     -0.2473569     -3.2903656      3.5295523    
     49760   6.5435491      158.5          158.5          158.5          1.2405898      1.5483505      1.0524266      1.1209923      6.5435491    
     49780   11.739886      158.5          158.5          158.5          1.7702112      1.4565025     -3.2771615      7.1312926      11.739886    
     49800   14.581716      158.5          158.5          158.5          0.81357954    -1.1125312     -0.5325021      4.0857719      14.581716    
     49820   12.748119      158.5          158.5          158.5         -0.019929463   -2.1351003      1.9074636      0.16784827     12.748119    
     49840   8.149911       158.5          158.5          158.5          0.50663336     2.3911292     -0.92402799     0.052798862    8.149911     
     49860   5.3376361      158.5          158.5          158.5          0.52109773     2.8205597     -2.1164905      0.85922395     5.3376361    
     49880   6.4063242      158.5          158.5          158.5         -2.2171008     -3.1995303     -1.4929241     -1.958848       6.4063242    
     49900   2.73393        158.5          158.5          158.5          2.1402822      2.5751784      4.3469597     -0.50129162     2.73393      
     49920   6.502839       158.5          158.5          158.5         -1.7040027     -0.078703949   -2.6285589     -2.4047453      6.502839     
     49940   3.2628759      158.5          158.5          158.5         -0.19004781    -0.93644571    -1.7674283      2.1337306      3.2628759    
     49960   12.256192      158.5          158.5          158.5         -2.2123667     -5.8835135     -1.1800857      0.42649897     12.256192    
     49980   2.4417651      158.5          158.5          158.5         -1.5724366     -1.5969478     -2.6737111     -0.44665093     2.4417651    
     50000   2.8118983      158.5          158.5          158.5          0.57330096     1.7336459     -1.3578121      1.3440691      2.8118983    
     50020   3.0018206      158.5          158.5          158.5          0.18302161     0.54535906     0.64324877    -0.63954301     3.0018206    
     50040  -0.82452111     158.5          158.5          158.5          0.047042333   -0.51484511     0.61140142     0.044570689   -0.82452111   
     50060  -6.5348641      158.5          158.5          158.5          0.011183797   -2.2122221     -0.6945711      2.9403446     -6.5348641    
     50080  -7.9704881      158.5          158.5          158.5         -0.68286796     0.3067332     -1.2948181     -1.060519      -7.9704881    
     50100  -3.1572484      158.5          158.5          158.5         -1.1741155     -2.0293575     -0.30184798    -1.1911411     -3.1572484    
     50120  -6.1482136      158.5          158.5          158.5         -2.4590476     -4.5546483     -3.8403581      1.0178637     -6.1482136    
     50140  -0.44414515     158.5          158.5          158.5         -1.0762711     -1.2385118     -1.5796283     -0.41067314    -0.44414515   
     50160  -9.559953       158.5          158.5          158.5          2.1151439      2.1946083      4.6442282     -0.49340481    -9.559953     
     50180  -4.7630914      158.5          158.5          158.5          2.0463987      1.8209218      2.91589        1.4023843     -4.7630914    
     50200  -0.11974124     158.5          158.5          158.5         -1.1424025      0.57434881    -3.849881      -0.15167535    -0.11974124   
     50220   12.856253      158.5          158.5          158.5         -0.1595822      1.1318534     -1.7983517      0.18775176     12.856253    
     50240   0.59257295     158.5          158.5          158.5         -4.1673732     -1.5951933     -3.7355863     -7.1713401      0.59257295   
     50260  -2.729126       158.5          158.5          158.5          1.0016742      1.6189552      0.6825162      0.70355132    -2.729126     
     50280   9.4124848      158.5          158.5          158.5         -0.33771551    -1.5179447     -2.2911758      2.795974       9.4124848    
     50300   2.0273577      158.5          158.5          158.5         -1.294834       1.653629      -0.74561164    -4.7925193      2.0273577    
     50320   1.9407991      158.5          158.5          158.5          1.1636304      2.5321007      1.3342065     -0.37541589     1.9407991    
     50340   12.412573      158.5          158.5          158.5         -3.460677      -4.3927641     -3.9323238     -2.056943       12.412573    
     50360   18.957593      158.5          158.5          158.5          1.1645238     -1.1418901      0.41832084     4.2171407      18.957593    
     50380   5.6533825      158.5          158.5          158.5         -1.242526      -1.9808314     -2.7580727      1.011326       5.6533825    
     50400   15.548738      158.5          158.5          158.5         -2.0118845     -0.21804085    -2.1516801     -3.6659326      15.548738    
     50411   15.148242      158.5          158.5          158.5         -0.40114834    -0.57584898    -0.17284284    -0.45475322     15.148242    
Loop time of 4.62506 on 1 procs for 50000 steps with 100 atoms

Performance: 934.042 ns/day, 0.026 hours/ns, 10810.672 timesteps/s, 1.081 Matom-step/s
83.0% CPU use with 1 MPI tasks x no OpenMP threads

MPI task timing breakdown:
Section |  min time  |  avg time  |  max time  |%varavg| %total
---------------------------------------------------------------
Pair    | 2.1005     | 2.1005     | 2.1005     |   0.0 | 45.41
Bond    | 0.8536     | 0.8536     | 0.8536     |   0.0 | 18.46
Neigh   | 0.058335   | 0.058335   | 0.058335   |   0.0 |  1.26
Comm    | 0.012887   | 0.012887   | 0.012887   |   0.0 |  0.28
Output  | 0.28471    | 0.28471    | 0.28471    |   0.0 |  6.16
Modify  | 1.2571     | 1.2571     | 1.2571     |   0.0 | 27.18
Other   |            | 0.05794    |            |       |  1.25

Nlocal:            100 ave         100 max         100 min
Histogram: 1 0 0 0 0 0 0 0 0 0
Nghost:              0 ave           0 max           0 min
Histogram: 1 0 0 0 0 0 0 0 0 0
Neighs:           4160 ave        4160 max        4160 min
Histogram: 1 0 0 0 0 0 0 0 0 0
FullNghs:            0 ave           0 max           0 min
Histogram: 1 0 0 0 0 0 0 0 0 0

Total # of neighbors = 4160
Ave neighs/atom = 41.6
Ave special neighs/atom = 5.88
Neighbor list builds = 397
Dangerous builds = 0

# Access cumulative reaction counts after the simulation
variable react1_count equal f_3[1]
variable react2_count equal f_3[2]
variable react3_count equal f_3[3]
variable react4_count equal f_3[4]

# Output cumulative reaction counts
print "Cumulative reaction count for reac1to2: ${react1_count}"
Cumulative reaction count for reac1to2: 0
print "Cumulative reaction count for reac2to3: ${react2_count}"
Cumulative reaction count for reac2to3: 0
print "Cumulative reaction count for reac3to2: ${react3_count}"
Cumulative reaction count for reac3to2: 0
print "Cumulative reaction count for reac2to1: ${react4_count}"
Cumulative reaction count for reac2to1: 0

print "All done"
All done
write_data final.data nofix
System init for write_data ...
Generated 0 of 3 mixed pair_coeff terms from geometric mixing rule
WARNING: Not all mixed pair coeffs generated from mixing. Use write_data with 'pair ij' option to store all pair coeffs. (src/src/write_data.cpp:326)
Total wall time: 0:00:08
