read_data	InitialFile.txt
Reading data file ...
  orthogonal box = (0 0 0) to (158.5 158.5 158.5)
  1 by 1 by 1 MPI processor grid
WARNING: Atom style in data file atomic differs from currently defined atom style molecular (src/src/read_data.cpp:621)
  reading atoms ...
  100 atoms
  scanning bonds ...
  1 = max bonds/atom
  scanning angles ...
  1 = max angles/atom
  scanning dihedrals ...
  1 = max dihedrals/atom
  reading bonds ...
  99 bonds
  reading angles ...
  98 angles
  reading dihedrals ...
  97 dihedrals
Finding 1-2 1-3 1-4 neighbors ...
  special bond factors lj:    0        0        0       
  special bond factors coul:  0        0        0       
     2 = max # of 1-2 neighbors
     2 = max # of 1-3 neighbors
     4 = max # of 1-4 neighbors
     6 = max # of special neighbors
  special bonds CPU = 0.005 seconds
  read_data CPU = 0.029 seconds

# Dreiding potential information
neighbor	0.4 bin
neigh_modify	every 10 one 10000

bond_style      harmonic
bond_coeff	1 350 1.53
bond_coeff	2 700 1.53

angle_style     harmonic
angle_coeff	1 60 109.5
angle_coeff	2 120 109.5

dihedral_style	multi/harmonic
dihedral_coeff	1 1.73 -4.49 0.776 6.99 0.0
dihedral_coeff	2 1.73 -4.49 0.776 6.99 0.0

pair_style	lj/cut 10.5
pair_coeff	* * 1.0 1.0 10.5
pair_coeff	3 3 2.0 0.5 10.5

compute csym all centro/atom fcc
compute peratom all pe/atom


#####################################################
# Equilibration (Brownian dynamics at 300 K)

velocity 	all create 300.0 1231
fix		1 all nve/limit 0.05
fix 2 all brownian 30.0 12908410 gamma_t 3.0 rng gaussian # Compute a correct 300K simulation, check the value for gamma_t
thermo_style	custom step temp
thermo          10000
timestep	1
run		100000
Generated 0 of 3 mixed pair_coeff terms from geometric mixing rule
WARNING: One or more atoms are time integrated more than once (src/src/modify.cpp:289)
Neighbor list info ...
  update: every = 10 steps, delay = 0 steps, check = yes
  max neighbors/atom: 10000, page size: 100000
  master list distance cutoff = 10.9
  ghost atom cutoff = 10.9
  binsize = 5.45, bins = 30 30 30
  2 neighbor lists, perpetual/occasional/extra = 1 1 0
  (1) pair lj/cut, perpetual
      attributes: half, newton on
      pair build: half/bin/newton
      stencil: half/bin/3d
      bin: standard
  (2) compute centro/atom, occasional
      attributes: full, newton on
      pair build: full/bin
      stencil: full/bin/3d
      bin: standard
Per MPI rank memory allocation (min/avg/max) = 8.15 | 8.15 | 8.15 Mbytes
   Step          Temp     
         0   300          
     10000   301.14599    
     20000   258.43265    
     30000   315.00716    
     40000   288.15873    
     50000   282.34048    
     60000   293.92088    
     70000   308.43796    
     80000   274.17263    
     90000   333.82677    
    100000   337.04712    
Loop time of 2.73773 on 1 procs for 100000 steps with 100 atoms

Performance: 3155.898 ns/day, 0.008 hours/ns, 36526.597 timesteps/s, 3.653 Matom-step/s
98.4% CPU use with 1 MPI tasks x no OpenMP threads

MPI task timing breakdown:
Section |  min time  |  avg time  |  max time  |%varavg| %total
---------------------------------------------------------------
Pair    | 0.55097    | 0.55097    | 0.55097    |   0.0 | 20.13
Bond    | 1.3192     | 1.3192     | 1.3192     |   0.0 | 48.18
Neigh   | 0.060846   | 0.060846   | 0.060846   |   0.0 |  2.22
Comm    | 0.014781   | 0.014781   | 0.014781   |   0.0 |  0.54
Output  | 0.00024545 | 0.00024545 | 0.00024545 |   0.0 |  0.01
Modify  | 0.75973    | 0.75973    | 0.75973    |   0.0 | 27.75
Other   |            | 0.03199    |            |       |  1.17

Nlocal:            100 ave         100 max         100 min
Histogram: 1 0 0 0 0 0 0 0 0 0
Nghost:              0 ave           0 max           0 min
Histogram: 1 0 0 0 0 0 0 0 0 0
Neighs:            470 ave         470 max         470 min
Histogram: 1 0 0 0 0 0 0 0 0 0
FullNghs:            0 ave           0 max           0 min
Histogram: 1 0 0 0 0 0 0 0 0 0

Total # of neighbors = 470
Ave neighs/atom = 4.7
Ave special neighs/atom = 5.88
Neighbor list builds = 1219
Dangerous builds = 30
unfix 1
unfix 2
write_restart 	restart.${simname}.dreiding1
write_restart 	restart.InitialFile.dreiding1
System init for write_restart ...
Generated 0 of 3 mixed pair_coeff terms from geometric mixing rule

#####################################################
# Define Settings
compute eng all pe/atom
compute eatoms all reduce sum c_eng

#####################################################
# Minimization

dump mydmp all atom 100 dump.lammpstrj

reset_timestep 0
fix 1 all nvt temp 300.0 300.0 100.0
thermo 20
thermo_style custom step pe lx ly lz press pxx pyy pzz c_eatoms
min_style cg
minimize 1e-25 1e-25 500000 1000000
Switching to 'neigh_modify every 1 delay 0 check yes' setting during minimization
Generated 0 of 3 mixed pair_coeff terms from geometric mixing rule
Per MPI rank memory allocation (min/avg/max) = 9.275 | 9.275 | 9.275 Mbytes
   Step         PotEng           Lx             Ly             Lz           Press           Pxx            Pyy            Pzz          c_eatoms   
         0   16.772214      158.5          158.5          158.5          1.4629839      1.9998021      0.76524724     1.6239025      16.772214    
        20   2.7834278      158.5          158.5          158.5          2.2458359      2.4258599      2.2378029      2.0738448      2.7834278    
        40   2.0634689      158.5          158.5          158.5          2.0105893      2.1067081      2.0245764      1.9004835      2.0634689    
        60   1.6549229      158.5          158.5          158.5          2.0271142      2.2429329      2.0082349      1.8301749      1.6549229    
        80   1.5324646      158.5          158.5          158.5          2.109101       2.3264189      2.093288       1.9075961      1.5324646    
       100   1.4708134      158.5          158.5          158.5          2.0814659      2.2851651      2.0644638      1.8947687      1.4708134    
       120   1.4690161      158.5          158.5          158.5          2.0706899      2.2789466      2.0566074      1.8765159      1.4690161    
       140   1.4690161      158.5          158.5          158.5          2.0706898      2.2789465      2.0566073      1.8765157      1.4690161    
       144   1.4690161      158.5          158.5          158.5          2.0706898      2.2789465      2.0566073      1.8765157      1.4690161    
Loop time of 0.0166149 on 1 procs for 144 steps with 100 atoms

90.3% CPU use with 1 MPI tasks x no OpenMP threads

Minimization stats:
  Stopping criterion = energy tolerance
  Energy initial, next-to-last, final = 
      16.7722143561777   1.46901609616566   1.46901609616566
  Force two-norm initial, final = 143.00241 1.9584092
  Force max component initial, final = 32.695767 0.60960853
  Final line search alpha, max atom move = 0.082019849 0.05
  Iterations, force evaluations = 144 439

MPI task timing breakdown:
Section |  min time  |  avg time  |  max time  |%varavg| %total
---------------------------------------------------------------
Pair    | 0.0065663  | 0.0065663  | 0.0065663  |   0.0 | 39.52
Bond    | 0.0074762  | 0.0074762  | 0.0074762  |   0.0 | 45.00
Neigh   | 0.00071772 | 0.00071772 | 0.00071772 |   0.0 |  4.32
Comm    | 8.6974e-05 | 8.6974e-05 | 8.6974e-05 |   0.0 |  0.52
Output  | 0.00034569 | 0.00034569 | 0.00034569 |   0.0 |  2.08
Modify  | 0          | 0          | 0          |   0.0 |  0.00
Other   |            | 0.001422   |            |       |  8.56

Nlocal:            100 ave         100 max         100 min
Histogram: 1 0 0 0 0 0 0 0 0 0
Nghost:              0 ave           0 max           0 min
Histogram: 1 0 0 0 0 0 0 0 0 0
Neighs:            470 ave         470 max         470 min
Histogram: 1 0 0 0 0 0 0 0 0 0
FullNghs:            0 ave           0 max           0 min
Histogram: 1 0 0 0 0 0 0 0 0 0

Total # of neighbors = 470
Ave neighs/atom = 4.7
Ave special neighs/atom = 5.88
Neighbor list builds = 9
Dangerous builds = 0

group type1_atoms type 1
35 atoms in group type1_atoms
group type2_atoms type 2
28 atoms in group type2_atoms
group type3_atoms type 3
37 atoms in group type3_atoms

molecule mol1closeTo3PRE mol1closeTo3PRE.txt
Read molecule template mol1closeTo3PRE:
  1 molecules
  0 fragments
  3 atoms with max type 3
  0 bonds with max type 0
  0 angles with max type 0
  0 dihedrals with max type 0
  0 impropers with max type 0
molecule mol1closeTo3POST mol1closeTo3POST.txt
Read molecule template mol1closeTo3POST:
  1 molecules
  0 fragments
  3 atoms with max type 3
  0 bonds with max type 0
  0 angles with max type 0
  0 dihedrals with max type 0
  0 impropers with max type 0
molecule mol3closeTo1POST mol3closeTo1POST.txt
Read molecule template mol3closeTo1POST:
  1 molecules
  0 fragments
  3 atoms with max type 2
  0 bonds with max type 0
  0 angles with max type 0
  0 dihedrals with max type 0
  0 impropers with max type 0
molecule mol2closeTo3PRE mol2closeTo3PRE.txt
Read molecule template mol2closeTo3PRE:
  1 molecules
  0 fragments
  3 atoms with max type 3
  0 bonds with max type 0
  0 angles with max type 0
  0 dihedrals with max type 0
  0 impropers with max type 0
molecule mol2closeTo3POST mol2closeTo3POST.txt
Read molecule template mol2closeTo3POST:
  1 molecules
  0 fragments
  3 atoms with max type 3
  0 bonds with max type 0
  0 angles with max type 0
  0 dihedrals with max type 0
  0 impropers with max type 0
molecule mol3closeTo2POST mol3closeTo2POST.txt
Read molecule template mol3closeTo2POST:
  1 molecules
  0 fragments
  3 atoms with max type 2
  0 bonds with max type 0
  0 angles with max type 0
  0 dihedrals with max type 0
  0 impropers with max type 0
molecule mol2closeTo1PRE mol2closeTo1PRE.txt
Read molecule template mol2closeTo1PRE:
  1 molecules
  0 fragments
  3 atoms with max type 3
  0 bonds with max type 0
  0 angles with max type 0
  0 dihedrals with max type 0
  0 impropers with max type 0
molecule mol2closeTo1POST mol2closeTo1POST.txt
Read molecule template mol2closeTo1POST:
  1 molecules
  0 fragments
  3 atoms with max type 3
  0 bonds with max type 0
  0 angles with max type 0
  0 dihedrals with max type 0
  0 impropers with max type 0

fix 3 all bond/react   react reac1to2 type1_atoms 1 0 8 mol1closeTo3PRE mol1closeTo3POST map_1to2.txt   react reac2to3 type2_atoms 1 0 8 mol2closeTo3PRE mol2closeTo3POST map_2to3.txt   react reac3to2 type3_atoms 1 0 8 mol2closeTo3PRE mol3closeTo2POST map_3to2.txt   react reac2to1 type2_atoms 1 0 8 mol2closeTo1PRE mol2closeTo1POST map_2to1.txt
dynamic group bond_react_MASTER_group defined
group type1_atoms type 1
35 atoms in group type1_atoms
group type2_atoms type 2
28 atoms in group type2_atoms
group type3_atoms type 3
37 atoms in group type3_atoms

thermo_style multi f_react[1]
run 50000

CITE-CITE-CITE-CITE-CITE-CITE-CITE-CITE-CITE-CITE-CITE-CITE-CITE

Your simulation uses code contributions which should be cited:

- fix bond/react: reacter.org doi:10.1016/j.polymer.2017.09.038, doi:10.1021/acs.macromol.0c02012

@Article{Gissinger17,
 author = {J. R. Gissinger and B. D. Jensen and K. E. Wise},
 title = {Modeling Chemical Reactions in Classical Molecular Dynamics Simulations},
 journal = {Polymer},
 year =    2017,
 volume =  128,
 pages =   {211--217}
}

@Article{Gissinger20,
 author = {J. R. Gissinger, B. D. Jensen, K. E. Wise},
 title = {{REACTER}: A Heuristic Method for Reactive Molecular Dynamics},
 journal = {Macromolecules},
 year =    2020,
 volume =  53,
 number =  22,
 pages =   {9953--9961}
}

CITE-CITE-CITE-CITE-CITE-CITE-CITE-CITE-CITE-CITE-CITE-CITE-CITE

Generated 0 of 3 mixed pair_coeff terms from geometric mixing rule
Neighbor list info ...
  update: every = 10 steps, delay = 0 steps, check = yes
  max neighbors/atom: 10000, page size: 100000
  master list distance cutoff = 10.9
  ghost atom cutoff = 10.9
  binsize = 5.45, bins = 30 30 30
  3 neighbor lists, perpetual/occasional/extra = 1 2 0
  (1) pair lj/cut, perpetual
      attributes: half, newton on
      pair build: half/bin/newton
      stencil: half/bin/3d
      bin: standard
  (2) compute centro/atom, occasional
      attributes: full, newton on
      pair build: full/bin
      stencil: full/bin/3d
      bin: standard
  (3) fix bond/react, occasional, copy from (1)
      attributes: half, newton on
      pair build: copy
      stencil: none
      bin: none
Per MPI rank memory allocation (min/avg/max) = 9.591 | 9.591 | 9.591 Mbytes
------------ Step            144 ----- CPU =            0 (sec) -------------
TotEng   =       100.9317 KinEng   =        99.4627 Temp     =       337.0471 
PotEng   =         1.4690 E_bond   =         0.0943 E_angle  =         0.2972 
E_dihed  =         1.1079 E_impro  =         0.0000 E_vdwl   =        -0.0304 
E_coul   =         0.0000 E_long   =         0.0000 Press    =         2.0707
------------ Step            160 ----- CPU =  0.000775707 (sec) -------------
TotEng   =       101.3360 KinEng   =        74.7806 Temp     =       253.4073 
PotEng   =        26.5554 E_bond   =         7.7520 E_angle  =        11.2723 
E_dihed  =         7.5615 E_impro  =         0.0000 E_vdwl   =        -0.0304 
E_coul   =         0.0000 E_long   =         0.0000 Press    =         0.8551
------------ Step            180 ----- CPU =  0.001575133 (sec) -------------
TotEng   =       103.0939 KinEng   =        41.6780 Temp     =       141.2335 
PotEng   =        61.4158 E_bond   =        31.9139 E_angle  =        10.1483 
E_dihed  =        19.3841 E_impro  =         0.0000 E_vdwl   =        -0.0305 
E_coul   =         0.0000 E_long   =         0.0000 Press    =         1.7150
------------ Step            200 ----- CPU =  0.002433517 (sec) -------------
TotEng   =       105.8938 KinEng   =        50.5866 Temp     =       171.4219 
PotEng   =        55.3072 E_bond   =        20.8974 E_angle  =        15.6023 
E_dihed  =        18.8379 E_impro  =         0.0000 E_vdwl   =        -0.0304 
E_coul   =         0.0000 E_long   =         0.0000 Press    =        -0.5818
------------ Step            220 ----- CPU =  0.003408299 (sec) -------------
TotEng   =       110.1620 KinEng   =        69.6276 Temp     =       235.9455 
PotEng   =        40.5345 E_bond   =        18.9149 E_angle  =         8.9774 
E_dihed  =        12.6724 E_impro  =         0.0000 E_vdwl   =        -0.0303 
E_coul   =         0.0000 E_long   =         0.0000 Press    =         0.0556
------------ Step            240 ----- CPU =  0.004185407 (sec) -------------
TotEng   =       113.9419 KinEng   =        59.4903 Temp     =       201.5936 
PotEng   =        54.4516 E_bond   =        18.6944 E_angle  =        20.6523 
E_dihed  =        15.1351 E_impro  =         0.0000 E_vdwl   =        -0.0303 
E_coul   =         0.0000 E_long   =         0.0000 Press    =         1.2052
------------ Step            260 ----- CPU =  0.005069423 (sec) -------------
TotEng   =       116.9977 KinEng   =        55.2759 Temp     =       187.3124 
PotEng   =        61.7218 E_bond   =        28.5039 E_angle  =        13.7407 
E_dihed  =        19.5073 E_impro  =         0.0000 E_vdwl   =        -0.0302 
E_coul   =         0.0000 E_long   =         0.0000 Press    =        -0.8567
------------ Step            280 ----- CPU =  0.005632797 (sec) -------------
TotEng   =       120.0350 KinEng   =        66.9857 Temp     =       226.9929 
PotEng   =        53.0493 E_bond   =        21.6500 E_angle  =        14.6590 
E_dihed  =        16.7706 E_impro  =         0.0000 E_vdwl   =        -0.0303 
E_coul   =         0.0000 E_long   =         0.0000 Press    =        -0.5783
------------ Step            300 ----- CPU =  0.006246109 (sec) -------------
TotEng   =       123.8976 KinEng   =        74.1091 Temp     =       251.1320 
PotEng   =        49.7885 E_bond   =        18.7498 E_angle  =        16.3063 
E_dihed  =        14.7626 E_impro  =         0.0000 E_vdwl   =        -0.0302 
E_coul   =         0.0000 E_long   =         0.0000 Press    =         0.3324
------------ Step            320 ----- CPU =  0.007027439 (sec) -------------
TotEng   =       127.9733 KinEng   =        67.3496 Temp     =       228.2263 
PotEng   =        60.6237 E_bond   =        27.3500 E_angle  =        14.8267 
E_dihed  =        18.4770 E_impro  =         0.0000 E_vdwl   =        -0.0301 
E_coul   =         0.0000 E_long   =         0.0000 Press    =        -0.8414
------------ Step            340 ----- CPU =  0.007924866 (sec) -------------
TotEng   =       132.2203 KinEng   =        70.3343 Temp     =       238.3405 
PotEng   =        61.8860 E_bond   =        28.0289 E_angle  =        12.7129 
E_dihed  =        21.1743 E_impro  =         0.0000 E_vdwl   =        -0.0301 
E_coul   =         0.0000 E_long   =         0.0000 Press    =        -0.7796
------------ Step            360 ----- CPU =  0.008541619 (sec) -------------
TotEng   =       136.6850 KinEng   =        78.3369 Temp     =       265.4586 
PotEng   =        58.3481 E_bond   =        21.1812 E_angle  =        17.6612 
E_dihed  =        19.5359 E_impro  =         0.0000 E_vdwl   =        -0.0302 
E_coul   =         0.0000 E_long   =         0.0000 Press    =        -0.4406
------------ Step            380 ----- CPU =   0.00923732 (sec) -------------
TotEng   =       141.2292 KinEng   =        70.9542 Temp     =       240.4409 
PotEng   =        70.2751 E_bond   =        30.2782 E_angle  =        19.8951 
E_dihed  =        20.1321 E_impro  =         0.0000 E_vdwl   =        -0.0302 
E_coul   =         0.0000 E_long   =         0.0000 Press    =        -1.5957
------------ Step            400 ----- CPU =   0.01096561 (sec) -------------
TotEng   =       145.5121 KinEng   =        79.4523 Temp     =       269.2383 
PotEng   =        66.0598 E_bond   =        29.2146 E_angle  =        15.0920 
E_dihed  =        21.7834 E_impro  =         0.0000 E_vdwl   =        -0.0302 
E_coul   =         0.0000 E_long   =         0.0000 Press    =        -1.6382
------------ Step            420 ----- CPU =   0.01206754 (sec) -------------
TotEng   =       149.8037 KinEng   =        85.3170 Temp     =       289.1121 
PotEng   =        64.4867 E_bond   =        26.7543 E_angle  =        17.2786 
E_dihed  =        20.4839 E_impro  =         0.0000 E_vdwl   =        -0.0301 
E_coul   =         0.0000 E_long   =         0.0000 Press    =        -0.6693
------------ Step            440 ----- CPU =   0.01277684 (sec) -------------
TotEng   =       153.9202 KinEng   =        80.2027 Temp     =       271.7813 
PotEng   =        73.7174 E_bond   =        33.6858 E_angle  =        19.3727 
E_dihed  =        20.6890 E_impro  =         0.0000 E_vdwl   =        -0.0300 
E_coul   =         0.0000 E_long   =         0.0000 Press    =        -2.0629
------------ Step            460 ----- CPU =   0.01335316 (sec) -------------
TotEng   =       157.5830 KinEng   =        79.7568 Temp     =       270.2702 
PotEng   =        77.8262 E_bond   =        31.2383 E_angle  =        20.7356 
E_dihed  =        25.8821 E_impro  =         0.0000 E_vdwl   =        -0.0298 
E_coul   =         0.0000 E_long   =         0.0000 Press    =        -2.8809
------------ Step            480 ----- CPU =   0.01390547 (sec) -------------
TotEng   =       161.2614 KinEng   =        86.6524 Temp     =       293.6371 
PotEng   =        74.6091 E_bond   =        23.7713 E_angle  =        23.6859 
E_dihed  =        27.1814 E_impro  =         0.0000 E_vdwl   =        -0.0296 
E_coul   =         0.0000 E_long   =         0.0000 Press    =        -1.2663
------------ Step            500 ----- CPU =   0.01443884 (sec) -------------
TotEng   =       165.1157 KinEng   =        88.8158 Temp     =       300.9684 
PotEng   =        76.2998 E_bond   =        31.1950 E_angle  =        20.0836 
E_dihed  =        25.0508 E_impro  =         0.0000 E_vdwl   =        -0.0296 
E_coul   =         0.0000 E_long   =         0.0000 Press    =        -3.1420
------------ Step            520 ----- CPU =   0.01544593 (sec) -------------
TotEng   =       168.8949 KinEng   =        87.2748 Temp     =       295.7465 
PotEng   =        81.6200 E_bond   =        34.2222 E_angle  =        20.0677 
E_dihed  =        27.3598 E_impro  =         0.0000 E_vdwl   =        -0.0296 
E_coul   =         0.0000 E_long   =         0.0000 Press    =        -3.2187
------------ Step            540 ----- CPU =    0.0160626 (sec) -------------
TotEng   =       172.2414 KinEng   =        84.1550 Temp     =       285.1744 
PotEng   =        88.0864 E_bond   =        34.1059 E_angle  =        22.9065 
E_dihed  =        31.1037 E_impro  =         0.0000 E_vdwl   =        -0.0296 
E_coul   =         0.0000 E_long   =         0.0000 Press    =        -1.6726
------------ Step            560 ----- CPU =    0.0165977 (sec) -------------
TotEng   =       175.3344 KinEng   =        96.1397 Temp     =       325.7866 
PotEng   =        79.1947 E_bond   =        22.0740 E_angle  =        26.1229 
E_dihed  =        31.0277 E_impro  =         0.0000 E_vdwl   =        -0.0299 
E_coul   =         0.0000 E_long   =         0.0000 Press    =        -3.5046
------------ Step            580 ----- CPU =   0.01802874 (sec) -------------
TotEng   =       178.6544 KinEng   =        85.5132 Temp     =       289.7769 
PotEng   =        93.1412 E_bond   =        40.4288 E_angle  =        26.1835 
E_dihed  =        26.5591 E_impro  =         0.0000 E_vdwl   =        -0.0302 
E_coul   =         0.0000 E_long   =         0.0000 Press    =        -1.5490
------------ Step            600 ----- CPU =   0.01858799 (sec) -------------
TotEng   =       181.3235 KinEng   =        97.7435 Temp     =       331.2215 
PotEng   =        83.5800 E_bond   =        35.8798 E_angle  =        22.1908 
E_dihed  =        25.5396 E_impro  =         0.0000 E_vdwl   =        -0.0302 
E_coul   =         0.0000 E_long   =         0.0000 Press    =         0.7907
------------ Step            620 ----- CPU =   0.01925793 (sec) -------------
TotEng   =       183.4015 KinEng   =        89.3990 Temp     =       302.9447 
PotEng   =        94.0025 E_bond   =        38.5222 E_angle  =        25.8886 
E_dihed  =        29.6219 E_impro  =         0.0000 E_vdwl   =        -0.0302 
E_coul   =         0.0000 E_long   =         0.0000 Press    =        -3.3413
------------ Step            640 ----- CPU =   0.02098938 (sec) -------------
TotEng   =       184.9983 KinEng   =        89.7122 Temp     =       304.0060 
PotEng   =        95.2861 E_bond   =        35.7435 E_angle  =        29.0194 
E_dihed  =        30.5534 E_impro  =         0.0000 E_vdwl   =        -0.0303 
E_coul   =         0.0000 E_long   =         0.0000 Press    =        -0.6974
------------ Step            660 ----- CPU =   0.02166125 (sec) -------------
TotEng   =       186.7174 KinEng   =        88.8786 Temp     =       301.1811 
PotEng   =        97.8388 E_bond   =        36.3748 E_angle  =        33.4731 
E_dihed  =        28.0212 E_impro  =         0.0000 E_vdwl   =        -0.0304 
E_coul   =         0.0000 E_long   =         0.0000 Press    =         1.1519
------------ Step            680 ----- CPU =   0.02220947 (sec) -------------
TotEng   =       187.9520 KinEng   =        94.3423 Temp     =       319.6957 
PotEng   =        93.6098 E_bond   =        39.0772 E_angle  =        26.2332 
E_dihed  =        28.3298 E_impro  =         0.0000 E_vdwl   =        -0.0304 
E_coul   =         0.0000 E_long   =         0.0000 Press    =        -4.3645
------------ Step            700 ----- CPU =   0.02302869 (sec) -------------
TotEng   =       188.6058 KinEng   =        93.8126 Temp     =       317.9009 
PotEng   =        94.7931 E_bond   =        34.8486 E_angle  =        28.5062 
E_dihed  =        31.4689 E_impro  =         0.0000 E_vdwl   =        -0.0305 
E_coul   =         0.0000 E_long   =         0.0000 Press    =        -0.5224
------------ Step            720 ----- CPU =   0.02479605 (sec) -------------
TotEng   =       188.9722 KinEng   =        96.8846 Temp     =       328.3108 
PotEng   =        92.0877 E_bond   =        38.1050 E_angle  =        23.5351 
E_dihed  =        30.4782 E_impro  =         0.0000 E_vdwl   =        -0.0306 
E_coul   =         0.0000 E_long   =         0.0000 Press    =         1.9478
------------ Step            740 ----- CPU =   0.02572186 (sec) -------------
TotEng   =       188.5172 KinEng   =       100.1193 Temp     =       339.2723 
PotEng   =        88.3979 E_bond   =        33.3846 E_angle  =        26.9686 
E_dihed  =        28.0754 E_impro  =         0.0000 E_vdwl   =        -0.0307 
E_coul   =         0.0000 E_long   =         0.0000 Press    =        -4.6407
------------ Step            760 ----- CPU =   0.02844712 (sec) -------------
TotEng   =       186.9917 KinEng   =       100.2744 Temp     =       339.7978 
PotEng   =        86.7172 E_bond   =        31.5714 E_angle  =        23.5418 
E_dihed  =        31.6348 E_impro  =         0.0000 E_vdwl   =        -0.0308 
E_coul   =         0.0000 E_long   =         0.0000 Press    =        -0.4907
------------ Step            780 ----- CPU =   0.02931076 (sec) -------------
TotEng   =       184.8785 KinEng   =        93.4868 Temp     =       316.7968 
PotEng   =        91.3918 E_bond   =        36.7863 E_angle  =        21.6364 
E_dihed  =        32.9999 E_impro  =         0.0000 E_vdwl   =        -0.0309 
E_coul   =         0.0000 E_long   =         0.0000 Press    =         2.2356
------------ Step            800 ----- CPU =   0.03281305 (sec) -------------
TotEng   =       181.8718 KinEng   =        99.6239 Temp     =       337.5934 
PotEng   =        82.2480 E_bond   =        32.7884 E_angle  =        20.8399 
E_dihed  =        28.6507 E_impro  =         0.0000 E_vdwl   =        -0.0310 
E_coul   =         0.0000 E_long   =         0.0000 Press    =        -4.2749
------------ Step            820 ----- CPU =   0.03350599 (sec) -------------
TotEng   =       178.2904 KinEng   =        94.7691 Temp     =       321.1423 
PotEng   =        83.5212 E_bond   =        34.6964 E_angle  =        22.0728 
E_dihed  =        26.7833 E_impro  =         0.0000 E_vdwl   =        -0.0313 
E_coul   =         0.0000 E_long   =         0.0000 Press    =         0.3334
------------ Step            840 ----- CPU =   0.03424447 (sec) -------------
TotEng   =       174.3087 KinEng   =        95.3409 Temp     =       323.0798 
PotEng   =        78.9678 E_bond   =        29.7593 E_angle  =        19.8558 
E_dihed  =        29.3841 E_impro  =         0.0000 E_vdwl   =        -0.0314 
E_coul   =         0.0000 E_long   =         0.0000 Press    =         3.5277
------------ Step            860 ----- CPU =   0.03549696 (sec) -------------
TotEng   =       170.9142 KinEng   =        78.5102 Temp     =       266.0458 
PotEng   =        92.4041 E_bond   =        36.2552 E_angle  =        22.5329 
E_dihed  =        33.6475 E_impro  =         0.0000 E_vdwl   =        -0.0315 
E_coul   =         0.0000 E_long   =         0.0000 Press    =        -3.6056
------------ Step            880 ----- CPU =   0.03604794 (sec) -------------
TotEng   =       168.2531 KinEng   =        83.9197 Temp     =       284.3769 
PotEng   =        84.3335 E_bond   =        31.4495 E_angle  =        19.9898 
E_dihed  =        32.9259 E_impro  =         0.0000 E_vdwl   =        -0.0318 
E_coul   =         0.0000 E_long   =         0.0000 Press    =         0.7986
------------ Step            900 ----- CPU =   0.03771663 (sec) -------------
TotEng   =       166.4216 KinEng   =        84.2653 Temp     =       285.5482 
PotEng   =        82.1562 E_bond   =        33.1471 E_angle  =        19.3600 
E_dihed  =        29.6810 E_impro  =         0.0000 E_vdwl   =        -0.0319 
E_coul   =         0.0000 E_long   =         0.0000 Press    =         4.0296
------------ Step            920 ----- CPU =   0.03862905 (sec) -------------
TotEng   =       164.9327 KinEng   =        85.7074 Temp     =       290.4348 
PotEng   =        79.2253 E_bond   =        27.7922 E_angle  =        22.3458 
E_dihed  =        29.1192 E_impro  =         0.0000 E_vdwl   =        -0.0319 
E_coul   =         0.0000 E_long   =         0.0000 Press    =        -2.3181
------------ Step            940 ----- CPU =   0.03924629 (sec) -------------
TotEng   =       164.0862 KinEng   =        74.0509 Temp     =       250.9347 
PotEng   =        90.0354 E_bond   =        36.4140 E_angle  =        22.5394 
E_dihed  =        31.1138 E_impro  =         0.0000 E_vdwl   =        -0.0319 
E_coul   =         0.0000 E_long   =         0.0000 Press    =         1.5193
------------ Step            960 ----- CPU =   0.04008659 (sec) -------------
TotEng   =       163.5603 KinEng   =        88.2387 Temp     =       299.0127 
PotEng   =        75.3215 E_bond   =        23.4133 E_angle  =        21.6744 
E_dihed  =        30.2657 E_impro  =         0.0000 E_vdwl   =        -0.0319 
E_coul   =         0.0000 E_long   =         0.0000 Press    =         4.7741
------------ Step            980 ----- CPU =   0.04148668 (sec) -------------
TotEng   =       163.9016 KinEng   =        81.9311 Temp     =       277.6383 
PotEng   =        81.9705 E_bond   =        35.5303 E_angle  =        20.6587 
E_dihed  =        25.8134 E_impro  =         0.0000 E_vdwl   =        -0.0319 
E_coul   =         0.0000 E_long   =         0.0000 Press    =        -2.1338
------------ Step           1000 ----- CPU =   0.04216034 (sec) -------------
TotEng   =       164.2873 KinEng   =        87.4119 Temp     =       296.2109 
PotEng   =        76.8754 E_bond   =        30.5597 E_angle  =        20.5072 
E_dihed  =        25.8404 E_impro  =         0.0000 E_vdwl   =        -0.0319 
E_coul   =         0.0000 E_long   =         0.0000 Press    =         1.9027
------------ Step           1020 ----- CPU =   0.04306974 (sec) -------------
TotEng   =       165.1244 KinEng   =        84.6732 Temp     =       286.9302 
PotEng   =        80.4512 E_bond   =        29.4341 E_angle  =        21.6786 
E_dihed  =        29.3705 E_impro  =         0.0000 E_vdwl   =        -0.0319 
E_coul   =         0.0000 E_long   =         0.0000 Press    =         4.8719
------------ Step           1040 ----- CPU =   0.04386644 (sec) -------------
TotEng   =       166.3695 KinEng   =        82.0751 Temp     =       278.1261 
PotEng   =        84.2944 E_bond   =        27.7948 E_angle  =        25.1380 
E_dihed  =        31.3937 E_impro  =         0.0000 E_vdwl   =        -0.0320 
E_coul   =         0.0000 E_long   =         0.0000 Press    =        -1.5887
------------ Step           1060 ----- CPU =   0.04504251 (sec) -------------
TotEng   =       168.4015 KinEng   =        82.0874 Temp     =       278.1677 
PotEng   =        86.3141 E_bond   =        33.3722 E_angle  =        20.2615 
E_dihed  =        32.7125 E_impro  =         0.0000 E_vdwl   =        -0.0321 
E_coul   =         0.0000 E_long   =         0.0000 Press    =         1.8515
------------ Step           1080 ----- CPU =   0.04587376 (sec) -------------
TotEng   =       171.1485 KinEng   =        80.4231 Temp     =       272.5282 
PotEng   =        90.7254 E_bond   =        35.2638 E_angle  =        24.3807 
E_dihed  =        31.1131 E_impro  =         0.0000 E_vdwl   =        -0.0321 
E_coul   =         0.0000 E_long   =         0.0000 Press    =         4.1179
------------ Step           1100 ----- CPU =   0.04683001 (sec) -------------
TotEng   =       174.4857 KinEng   =        93.8893 Temp     =       318.1606 
PotEng   =        80.5965 E_bond   =        29.8603 E_angle  =        20.8958 
E_dihed  =        29.8724 E_impro  =         0.0000 E_vdwl   =        -0.0320 
E_coul   =         0.0000 E_long   =         0.0000 Press    =        -1.9703
------------ Step           1120 ----- CPU =   0.04772434 (sec) -------------
TotEng   =       178.2212 KinEng   =        86.1110 Temp     =       291.8026 
PotEng   =        92.1102 E_bond   =        36.6207 E_angle  =        21.7483 
E_dihed  =        33.7731 E_impro  =         0.0000 E_vdwl   =        -0.0319 
E_coul   =         0.0000 E_long   =         0.0000 Press    =         0.3213
------------ Step           1140 ----- CPU =    0.0484374 (sec) -------------
TotEng   =       181.4835 KinEng   =        83.6948 Temp     =       283.6149 
PotEng   =        97.7887 E_bond   =        38.9200 E_angle  =        23.0343 
E_dihed  =        35.8661 E_impro  =         0.0000 E_vdwl   =        -0.0317 
E_coul   =         0.0000 E_long   =         0.0000 Press    =         2.5532
------------ Step           1160 ----- CPU =   0.04927075 (sec) -------------
TotEng   =       184.2955 KinEng   =        95.0565 Temp     =       322.1160 
PotEng   =        89.2390 E_bond   =        30.7040 E_angle  =        24.1005 
E_dihed  =        34.4662 E_impro  =         0.0000 E_vdwl   =        -0.0317 
E_coul   =         0.0000 E_long   =         0.0000 Press    =        -3.3014
------------ Step           1180 ----- CPU =   0.04996602 (sec) -------------
TotEng   =       186.7115 KinEng   =        97.3484 Temp     =       329.8826 
PotEng   =        89.3630 E_bond   =        36.0434 E_angle  =        20.0849 
E_dihed  =        33.2664 E_impro  =         0.0000 E_vdwl   =        -0.0316 
E_coul   =         0.0000 E_long   =         0.0000 Press    =        -0.6466
------------ Step           1200 ----- CPU =   0.05098693 (sec) -------------
TotEng   =       187.9576 KinEng   =        91.4239 Temp     =       309.8064 
PotEng   =        96.5337 E_bond   =        36.1593 E_angle  =        26.6548 
E_dihed  =        33.7512 E_impro  =         0.0000 E_vdwl   =        -0.0316 
E_coul   =         0.0000 E_long   =         0.0000 Press    =         2.8198
------------ Step           1220 ----- CPU =   0.05250023 (sec) -------------
TotEng   =       188.4988 KinEng   =        96.8362 Temp     =       328.1470 
PotEng   =        91.6626 E_bond   =        37.5089 E_angle  =        20.9754 
E_dihed  =        33.2098 E_impro  =         0.0000 E_vdwl   =        -0.0316 
E_coul   =         0.0000 E_long   =         0.0000 Press    =        -2.1937
------------ Step           1240 ----- CPU =   0.05357285 (sec) -------------
TotEng   =       188.2700 KinEng   =       103.9486 Temp     =       352.2486 
PotEng   =        84.3214 E_bond   =        28.0739 E_angle  =        22.7601 
E_dihed  =        33.5190 E_impro  =         0.0000 E_vdwl   =        -0.0316 
E_coul   =         0.0000 E_long   =         0.0000 Press    =        -0.6363
------------ Step           1260 ----- CPU =   0.05471599 (sec) -------------
TotEng   =       187.7198 KinEng   =        88.7972 Temp     =       300.9053 
PotEng   =        98.9226 E_bond   =        36.0803 E_angle  =        26.2517 
E_dihed  =        36.6223 E_impro  =         0.0000 E_vdwl   =        -0.0317 
E_coul   =         0.0000 E_long   =         0.0000 Press    =         3.5822
------------ Step           1280 ----- CPU =   0.05539628 (sec) -------------
TotEng   =       186.8808 KinEng   =        91.6278 Temp     =       310.4974 
PotEng   =        95.2530 E_bond   =        37.4739 E_angle  =        21.3021 
E_dihed  =        36.5087 E_impro  =         0.0000 E_vdwl   =        -0.0317 
E_coul   =         0.0000 E_long   =         0.0000 Press    =        -1.7964
------------ Step           1300 ----- CPU =   0.05593654 (sec) -------------
TotEng   =       185.8337 KinEng   =        93.5145 Temp     =       316.8905 
PotEng   =        92.3193 E_bond   =        31.7084 E_angle  =        24.7472 
E_dihed  =        35.8954 E_impro  =         0.0000 E_vdwl   =        -0.0317 
E_coul   =         0.0000 E_long   =         0.0000 Press    =        -1.0689
------------ Step           1320 ----- CPU =   0.05680306 (sec) -------------
TotEng   =       184.8129 KinEng   =        93.9464 Temp     =       318.3543 
PotEng   =        90.8665 E_bond   =        32.9896 E_angle  =        22.8957 
E_dihed  =        35.0131 E_impro  =         0.0000 E_vdwl   =        -0.0319 
E_coul   =         0.0000 E_long   =         0.0000 Press    =         4.4542
------------ Step           1340 ----- CPU =   0.05792306 (sec) -------------
TotEng   =       183.8442 KinEng   =        79.4986 Temp     =       269.3953 
PotEng   =       104.3456 E_bond   =        43.2309 E_angle  =        26.6572 
E_dihed  =        34.4895 E_impro  =         0.0000 E_vdwl   =        -0.0320 
E_coul   =         0.0000 E_long   =         0.0000 Press    =        -1.5915
------------ Step           1360 ----- CPU =   0.05889139 (sec) -------------
TotEng   =       182.8364 KinEng   =        97.4805 Temp     =       330.3301 
PotEng   =        85.3559 E_bond   =        28.3113 E_angle  =        24.4286 
E_dihed  =        32.6479 E_impro  =         0.0000 E_vdwl   =        -0.0319 
E_coul   =         0.0000 E_long   =         0.0000 Press    =        -1.1606
------------ Step           1380 ----- CPU =    0.0598104 (sec) -------------
TotEng   =       182.0736 KinEng   =        86.1791 Temp     =       292.0333 
PotEng   =        95.8945 E_bond   =        42.9470 E_angle  =        22.6804 
E_dihed  =        30.2992 E_impro  =         0.0000 E_vdwl   =        -0.0319 
E_coul   =         0.0000 E_long   =         0.0000 Press    =         4.9367
------------ Step           1400 ----- CPU =   0.06117702 (sec) -------------
TotEng   =       181.0211 KinEng   =        89.8341 Temp     =       304.4190 
PotEng   =        91.1870 E_bond   =        35.0441 E_angle  =        24.8071 
E_dihed  =        31.3678 E_impro  =         0.0000 E_vdwl   =        -0.0320 
E_coul   =         0.0000 E_long   =         0.0000 Press    =        -0.8974
------------ Step           1420 ----- CPU =   0.06241727 (sec) -------------
TotEng   =       180.2124 KinEng   =        81.8165 Temp     =       277.2499 
PotEng   =        98.3959 E_bond   =        34.7723 E_angle  =        30.3600 
E_dihed  =        33.2958 E_impro  =         0.0000 E_vdwl   =        -0.0321 
E_coul   =         0.0000 E_long   =         0.0000 Press    =        -0.5998
------------ Step           1440 ----- CPU =   0.06425004 (sec) -------------
TotEng   =       179.4290 KinEng   =        98.4122 Temp     =       333.4875 
PotEng   =        81.0168 E_bond   =        29.5761 E_angle  =        20.1117 
E_dihed  =        31.3612 E_impro  =         0.0000 E_vdwl   =        -0.0322 
E_coul   =         0.0000 E_long   =         0.0000 Press    =         5.7815
------------ Step           1460 ----- CPU =   0.06521256 (sec) -------------
TotEng   =       178.6525 KinEng   =        85.8660 Temp     =       290.9725 
PotEng   =        92.7865 E_bond   =        32.6115 E_angle  =        31.5838 
E_dihed  =        28.6232 E_impro  =         0.0000 E_vdwl   =        -0.0320 
E_coul   =         0.0000 E_long   =         0.0000 Press    =        -1.2109
------------ Step           1480 ----- CPU =   0.06628187 (sec) -------------
TotEng   =       177.8418 KinEng   =        85.3880 Temp     =       289.3525 
PotEng   =        92.4538 E_bond   =        39.8284 E_angle  =        21.8095 
E_dihed  =        30.8479 E_impro  =         0.0000 E_vdwl   =        -0.0319 
E_coul   =         0.0000 E_long   =         0.0000 Press    =        -0.8139
------------ Step           1500 ----- CPU =   0.09453373 (sec) -------------
TotEng   =       176.8794 KinEng   =        92.3215 Temp     =       312.8479 
PotEng   =        84.5579 E_bond   =        25.6773 E_angle  =        23.7549 
E_dihed  =        35.1576 E_impro  =         0.0000 E_vdwl   =        -0.0319 
E_coul   =         0.0000 E_long   =         0.0000 Press    =         5.7382
------------ Step           1520 ----- CPU =   0.09542596 (sec) -------------
TotEng   =       176.3503 KinEng   =        89.2945 Temp     =       302.5903 
PotEng   =        87.0558 E_bond   =        29.4031 E_angle  =        22.5253 
E_dihed  =        35.1593 E_impro  =         0.0000 E_vdwl   =        -0.0319 
E_coul   =         0.0000 E_long   =         0.0000 Press    =        -1.5176
------------ Step           1540 ----- CPU =   0.09662762 (sec) -------------
TotEng   =       176.0117 KinEng   =        84.5284 Temp     =       286.4396 
PotEng   =        91.4833 E_bond   =        37.3642 E_angle  =        23.3182 
E_dihed  =        30.8327 E_impro  =         0.0000 E_vdwl   =        -0.0319 
E_coul   =         0.0000 E_long   =         0.0000 Press    =        -2.2515
------------ Step           1560 ----- CPU =   0.09785435 (sec) -------------
TotEng   =       175.2142 KinEng   =        94.4958 Temp     =       320.2159 
PotEng   =        80.7184 E_bond   =        29.1433 E_angle  =        22.6832 
E_dihed  =        28.9238 E_impro  =         0.0000 E_vdwl   =        -0.0319 
E_coul   =         0.0000 E_long   =         0.0000 Press    =         5.0700
------------ Step           1580 ----- CPU =   0.09879988 (sec) -------------
TotEng   =       174.0887 KinEng   =        94.8508 Temp     =       321.4188 
PotEng   =        79.2379 E_bond   =        28.5145 E_angle  =        18.8405 
E_dihed  =        31.9148 E_impro  =         0.0000 E_vdwl   =        -0.0319 
E_coul   =         0.0000 E_long   =         0.0000 Press    =        -0.2088
------------ Step           1600 ----- CPU =   0.09943642 (sec) -------------
TotEng   =       172.6481 KinEng   =        75.9594 Temp     =       257.4020 
PotEng   =        96.6887 E_bond   =        35.5330 E_angle  =        25.2076 
E_dihed  =        35.9800 E_impro  =         0.0000 E_vdwl   =        -0.0318 
E_coul   =         0.0000 E_long   =         0.0000 Press    =        -3.1670
------------ Step           1620 ----- CPU =    0.1000635 (sec) -------------
TotEng   =       170.7003 KinEng   =        72.9953 Temp     =       247.3578 
PotEng   =        97.7050 E_bond   =        35.8811 E_angle  =        24.5761 
E_dihed  =        37.2797 E_impro  =         0.0000 E_vdwl   =        -0.0318 
E_coul   =         0.0000 E_long   =         0.0000 Press    =         3.9126
------------ Step           1640 ----- CPU =    0.1011008 (sec) -------------
TotEng   =       168.3579 KinEng   =        80.4379 Temp     =       272.5783 
PotEng   =        87.9200 E_bond   =        31.1987 E_angle  =        20.2757 
E_dihed  =        36.4775 E_impro  =         0.0000 E_vdwl   =        -0.0319 
E_coul   =         0.0000 E_long   =         0.0000 Press    =         0.7781
------------ Step           1660 ----- CPU =    0.1017032 (sec) -------------
TotEng   =       165.9613 KinEng   =        75.7008 Temp     =       256.5257 
PotEng   =        90.2605 E_bond   =        30.2610 E_angle  =        24.2411 
E_dihed  =        35.7905 E_impro  =         0.0000 E_vdwl   =        -0.0321 
E_coul   =         0.0000 E_long   =         0.0000 Press    =        -2.6830
------------ Step           1680 ----- CPU =    0.1023909 (sec) -------------
TotEng   =       163.8009 KinEng   =        74.4728 Temp     =       252.3646 
PotEng   =        89.3281 E_bond   =        35.2579 E_angle  =        22.1497 
E_dihed  =        31.9526 E_impro  =         0.0000 E_vdwl   =        -0.0322 
E_coul   =         0.0000 E_long   =         0.0000 Press    =         3.6229
------------ Step           1700 ----- CPU =    0.1029324 (sec) -------------
TotEng   =       162.0014 KinEng   =        79.5360 Temp     =       269.5220 
PotEng   =        82.4654 E_bond   =        29.9614 E_angle  =        24.6022 
E_dihed  =        27.9340 E_impro  =         0.0000 E_vdwl   =        -0.0322 
E_coul   =         0.0000 E_long   =         0.0000 Press    =         1.9796
------------ Step           1720 ----- CPU =    0.1049016 (sec) -------------
TotEng   =       160.6643 KinEng   =        80.8141 Temp     =       273.8531 
PotEng   =        79.8502 E_bond   =        25.8477 E_angle  =        24.3541 
E_dihed  =        29.6807 E_impro  =         0.0000 E_vdwl   =        -0.0322 
E_coul   =         0.0000 E_long   =         0.0000 Press    =        -1.0936
------------ Step           1740 ----- CPU =     0.105576 (sec) -------------
TotEng   =       160.3737 KinEng   =        69.6473 Temp     =       236.0124 
PotEng   =        90.7264 E_bond   =        33.3192 E_angle  =        26.6526 
E_dihed  =        30.7869 E_impro  =         0.0000 E_vdwl   =        -0.0322 
E_coul   =         0.0000 E_long   =         0.0000 Press    =         4.0761
------------ Step           1760 ----- CPU =    0.1065697 (sec) -------------
TotEng   =       160.8280 KinEng   =        85.5059 Temp     =       289.7520 
PotEng   =        75.3222 E_bond   =        23.7798 E_angle  =        22.7580 
E_dihed  =        28.8167 E_impro  =         0.0000 E_vdwl   =        -0.0323 
E_coul   =         0.0000 E_long   =         0.0000 Press    =         1.6045
------------ Step           1780 ----- CPU =    0.1075269 (sec) -------------
TotEng   =       162.3064 KinEng   =        75.0170 Temp     =       254.2086 
PotEng   =        87.2894 E_bond   =        33.2149 E_angle  =        26.2485 
E_dihed  =        27.8583 E_impro  =         0.0000 E_vdwl   =        -0.0323 
E_coul   =         0.0000 E_long   =         0.0000 Press    =        -0.8158
------------ Step           1800 ----- CPU =    0.1083346 (sec) -------------
TotEng   =       164.4730 KinEng   =        81.8998 Temp     =       277.5321 
PotEng   =        82.5733 E_bond   =        29.6376 E_angle  =        25.0731 
E_dihed  =        27.8949 E_impro  =         0.0000 E_vdwl   =        -0.0323 
E_coul   =         0.0000 E_long   =         0.0000 Press    =         5.0242
------------ Step           1820 ----- CPU =     0.109483 (sec) -------------
TotEng   =       167.7595 KinEng   =        78.3080 Temp     =       265.3608 
PotEng   =        89.4515 E_bond   =        37.9975 E_angle  =        24.9563 
E_dihed  =        26.5300 E_impro  =         0.0000 E_vdwl   =        -0.0323 
E_coul   =         0.0000 E_long   =         0.0000 Press    =         0.9640
------------ Step           1840 ----- CPU =    0.1103098 (sec) -------------
TotEng   =       171.4055 KinEng   =        89.1217 Temp     =       302.0048 
PotEng   =        82.2838 E_bond   =        29.3741 E_angle  =        27.3584 
E_dihed  =        25.5833 E_impro  =         0.0000 E_vdwl   =        -0.0321 
E_coul   =         0.0000 E_long   =         0.0000 Press    =        -0.3642
------------ Step           1860 ----- CPU =     0.111123 (sec) -------------
TotEng   =       174.9508 KinEng   =        91.6521 Temp     =       310.5796 
PotEng   =        83.2987 E_bond   =        34.4566 E_angle  =        19.9675 
E_dihed  =        28.9065 E_impro  =         0.0000 E_vdwl   =        -0.0320 
E_coul   =         0.0000 E_long   =         0.0000 Press    =         5.1173
------------ Step           1880 ----- CPU =    0.1120792 (sec) -------------
TotEng   =       177.7604 KinEng   =        79.9256 Temp     =       270.8421 
PotEng   =        97.8348 E_bond   =        39.3968 E_angle  =        26.5803 
E_dihed  =        31.8896 E_impro  =         0.0000 E_vdwl   =        -0.0319 
E_coul   =         0.0000 E_long   =         0.0000 Press    =        -0.1597
------------ Step           1900 ----- CPU =    0.1129175 (sec) -------------
TotEng   =       180.1935 KinEng   =        94.9510 Temp     =       321.7585 
PotEng   =        85.2425 E_bond   =        32.3392 E_angle  =        23.5411 
E_dihed  =        29.3939 E_impro  =         0.0000 E_vdwl   =        -0.0316 
E_coul   =         0.0000 E_long   =         0.0000 Press    =        -1.5909
------------ Step           1920 ----- CPU =    0.1136942 (sec) -------------
TotEng   =       181.9011 KinEng   =       101.7357 Temp     =       344.7496 
PotEng   =        80.1655 E_bond   =        34.7038 E_angle  =        19.7168 
E_dihed  =        25.7762 E_impro  =         0.0000 E_vdwl   =        -0.0314 
E_coul   =         0.0000 E_long   =         0.0000 Press    =         4.4881
------------ Step           1940 ----- CPU =    0.1144551 (sec) -------------
TotEng   =       182.4792 KinEng   =       100.7863 Temp     =       341.5324 
PotEng   =        81.6929 E_bond   =        34.8084 E_angle  =        20.3068 
E_dihed  =        26.6089 E_impro  =         0.0000 E_vdwl   =        -0.0312 
E_coul   =         0.0000 E_long   =         0.0000 Press    =         0.0421
------------ Step           1960 ----- CPU =    0.1153412 (sec) -------------
TotEng   =       182.1725 KinEng   =        92.2903 Temp     =       312.7422 
PotEng   =        89.8822 E_bond   =        39.1232 E_angle  =        19.4194 
E_dihed  =        31.3707 E_impro  =         0.0000 E_vdwl   =        -0.0311 
E_coul   =         0.0000 E_long   =         0.0000 Press    =        -3.3260
------------ Step           1980 ----- CPU =    0.1162506 (sec) -------------
TotEng   =       181.3796 KinEng   =        92.8089 Temp     =       314.4995 
PotEng   =        88.5708 E_bond   =        33.0515 E_angle  =        22.7134 
E_dihed  =        32.8366 E_impro  =         0.0000 E_vdwl   =        -0.0307 
E_coul   =         0.0000 E_long   =         0.0000 Press    =         1.4073
------------ Step           2000 ----- CPU =    0.1173936 (sec) -------------
TotEng   =       180.3119 KinEng   =        91.0445 Temp     =       308.5208 
PotEng   =        89.2674 E_bond   =        31.3426 E_angle  =        26.3038 
E_dihed  =        31.6513 E_impro  =         0.0000 E_vdwl   =        -0.0304 
E_coul   =         0.0000 E_long   =         0.0000 Press    =        -1.1045
------------ Step           2020 ----- CPU =    0.1182622 (sec) -------------
TotEng   =       179.1786 KinEng   =        99.5172 Temp     =       337.2319 
PotEng   =        79.6614 E_bond   =        27.3744 E_angle  =        22.1706 
E_dihed  =        30.1467 E_impro  =         0.0000 E_vdwl   =        -0.0303 
E_coul   =         0.0000 E_long   =         0.0000 Press    =        -3.9593
------------ Step           2040 ----- CPU =    0.1188609 (sec) -------------
TotEng   =       177.6869 KinEng   =        84.6334 Temp     =       286.7955 
PotEng   =        93.0535 E_bond   =        37.6606 E_angle  =        24.7221 
E_dihed  =        30.7011 E_impro  =         0.0000 E_vdwl   =        -0.0303 
E_coul   =         0.0000 E_long   =         0.0000 Press    =         0.2148
------------ Step           2060 ----- CPU =    0.1202718 (sec) -------------
TotEng   =       176.0077 KinEng   =        85.4950 Temp     =       289.7152 
PotEng   =        90.5127 E_bond   =        41.2638 E_angle  =        18.3343 
E_dihed  =        30.9447 E_impro  =         0.0000 E_vdwl   =        -0.0302 
E_coul   =         0.0000 E_long   =         0.0000 Press    =        -0.6972
------------ Step           2080 ----- CPU =     0.121133 (sec) -------------
TotEng   =       173.9701 KinEng   =        91.1398 Temp     =       308.8437 
PotEng   =        82.8302 E_bond   =        32.2475 E_angle  =        20.6416 
E_dihed  =        29.9713 E_impro  =         0.0000 E_vdwl   =        -0.0301 
E_coul   =         0.0000 E_long   =         0.0000 Press    =        -3.8169
------------ Step           2100 ----- CPU =    0.1223671 (sec) -------------
TotEng   =       172.1652 KinEng   =        80.3693 Temp     =       272.3459 
PotEng   =        91.7959 E_bond   =        38.5554 E_angle  =        23.6673 
E_dihed  =        29.6033 E_impro  =         0.0000 E_vdwl   =        -0.0301 
E_coul   =         0.0000 E_long   =         0.0000 Press    =        -0.7597
------------ Step           2120 ----- CPU =    0.1232379 (sec) -------------
TotEng   =       170.3258 KinEng   =        84.7789 Temp     =       287.2884 
PotEng   =        85.5469 E_bond   =        35.3440 E_angle  =        20.2840 
E_dihed  =        29.9488 E_impro  =         0.0000 E_vdwl   =        -0.0299 
E_coul   =         0.0000 E_long   =         0.0000 Press    =        -1.1487
------------ Step           2140 ----- CPU =     0.123834 (sec) -------------
TotEng   =       168.3716 KinEng   =        79.2384 Temp     =       268.5135 
PotEng   =        89.1332 E_bond   =        38.6940 E_angle  =        20.8095 
E_dihed  =        29.6594 E_impro  =         0.0000 E_vdwl   =        -0.0297 
E_coul   =         0.0000 E_long   =         0.0000 Press    =        -5.7354
------------ Step           2160 ----- CPU =    0.1243726 (sec) -------------
TotEng   =       166.2812 KinEng   =        88.2432 Temp     =       299.0279 
PotEng   =        78.0380 E_bond   =        30.9938 E_angle  =        19.5907 
E_dihed  =        27.4832 E_impro  =         0.0000 E_vdwl   =        -0.0298 
E_coul   =         0.0000 E_long   =         0.0000 Press    =        -1.1697
------------ Step           2180 ----- CPU =    0.1249935 (sec) -------------
TotEng   =       164.0886 KinEng   =        84.4076 Temp     =       286.0303 
PotEng   =        79.6810 E_bond   =        27.3866 E_angle  =        26.8314 
E_dihed  =        25.4928 E_impro  =         0.0000 E_vdwl   =        -0.0298 
E_coul   =         0.0000 E_long   =         0.0000 Press    =        -0.5834
------------ Step           2200 ----- CPU =    0.1273178 (sec) -------------
TotEng   =       161.7351 KinEng   =        76.9476 Temp     =       260.7509 
PotEng   =        84.7874 E_bond   =        37.2023 E_angle  =        22.4022 
E_dihed  =        25.2129 E_impro  =         0.0000 E_vdwl   =        -0.0299 
E_coul   =         0.0000 E_long   =         0.0000 Press    =        -5.3591
------------ Step           2220 ----- CPU =    0.1288695 (sec) -------------
TotEng   =       159.6531 KinEng   =        66.6932 Temp     =       226.0018 
PotEng   =        92.9599 E_bond   =        32.1405 E_angle  =        35.4919 
E_dihed  =        25.3575 E_impro  =         0.0000 E_vdwl   =        -0.0300 
E_coul   =         0.0000 E_long   =         0.0000 Press    =        -0.9533
------------ Step           2240 ----- CPU =    0.1301538 (sec) -------------
TotEng   =       157.9582 KinEng   =        82.3483 Temp     =       279.0519 
PotEng   =        75.6099 E_bond   =        23.6504 E_angle  =        27.9570 
E_dihed  =        24.0326 E_impro  =         0.0000 E_vdwl   =        -0.0302 
E_coul   =         0.0000 E_long   =         0.0000 Press    =         0.0136
------------ Step           2260 ----- CPU =    0.1308574 (sec) -------------
TotEng   =       157.0341 KinEng   =        78.8559 Temp     =       267.2175 
PotEng   =        78.1781 E_bond   =        34.5938 E_angle  =        21.4992 
E_dihed  =        22.1154 E_impro  =         0.0000 E_vdwl   =        -0.0303 
E_coul   =         0.0000 E_long   =         0.0000 Press    =        -4.5945
------------ Step           2280 ----- CPU =    0.1317518 (sec) -------------
TotEng   =       156.3542 KinEng   =        74.3601 Temp     =       251.9826 
PotEng   =        81.9941 E_bond   =        34.0901 E_angle  =        26.9864 
E_dihed  =        20.9481 E_impro  =         0.0000 E_vdwl   =        -0.0305 
E_coul   =         0.0000 E_long   =         0.0000 Press    =         0.5104
------------ Step           2300 ----- CPU =    0.1325547 (sec) -------------
TotEng   =       156.2444 KinEng   =        77.6398 Temp     =       263.0963 
PotEng   =        78.6046 E_bond   =        28.9590 E_angle  =        28.7100 
E_dihed  =        20.9662 E_impro  =         0.0000 E_vdwl   =        -0.0306 
E_coul   =         0.0000 E_long   =         0.0000 Press    =         1.3724
------------ Step           2320 ----- CPU =    0.1332463 (sec) -------------
TotEng   =       157.1633 KinEng   =        78.7636 Temp     =       266.9045 
PotEng   =        78.3997 E_bond   =        33.2921 E_angle  =        24.2263 
E_dihed  =        20.9122 E_impro  =         0.0000 E_vdwl   =        -0.0308 
E_coul   =         0.0000 E_long   =         0.0000 Press    =        -5.0888
------------ Step           2340 ----- CPU =    0.1338416 (sec) -------------
TotEng   =       159.0588 KinEng   =        85.0818 Temp     =       288.3150 
PotEng   =        73.9770 E_bond   =        29.4234 E_angle  =        24.8810 
E_dihed  =        19.7037 E_impro  =         0.0000 E_vdwl   =        -0.0311 
E_coul   =         0.0000 E_long   =         0.0000 Press    =         1.6440
------------ Step           2360 ----- CPU =     0.134514 (sec) -------------
TotEng   =       161.8683 KinEng   =        81.1429 Temp     =       274.9674 
PotEng   =        80.7254 E_bond   =        36.5408 E_angle  =        24.9606 
E_dihed  =        19.2552 E_impro  =         0.0000 E_vdwl   =        -0.0313 
E_coul   =         0.0000 E_long   =         0.0000 Press    =         3.2347
------------ Step           2380 ----- CPU =    0.1351088 (sec) -------------
TotEng   =       165.1370 KinEng   =        83.7577 Temp     =       283.8281 
PotEng   =        81.3793 E_bond   =        32.6974 E_angle  =        26.9692 
E_dihed  =        21.7440 E_impro  =         0.0000 E_vdwl   =        -0.0314 
E_coul   =         0.0000 E_long   =         0.0000 Press    =        -5.2615
------------ Step           2400 ----- CPU =    0.1357021 (sec) -------------
TotEng   =       168.7719 KinEng   =        88.5680 Temp     =       300.1285 
PotEng   =        80.2039 E_bond   =        28.2780 E_angle  =        28.0664 
E_dihed  =        23.8912 E_impro  =         0.0000 E_vdwl   =        -0.0317 
E_coul   =         0.0000 E_long   =         0.0000 Press    =         2.0174
------------ Step           2420 ----- CPU =    0.1364723 (sec) -------------
TotEng   =       172.5755 KinEng   =        93.0708 Temp     =       315.3870 
PotEng   =        79.5047 E_bond   =        32.8353 E_angle  =        24.3737 
E_dihed  =        22.3277 E_impro  =         0.0000 E_vdwl   =        -0.0320 
E_coul   =         0.0000 E_long   =         0.0000 Press    =         5.4833
------------ Step           2440 ----- CPU =    0.1383051 (sec) -------------
TotEng   =       175.7773 KinEng   =        96.4742 Temp     =       326.9201 
PotEng   =        79.3031 E_bond   =        32.0077 E_angle  =        27.6244 
E_dihed  =        19.7031 E_impro  =         0.0000 E_vdwl   =        -0.0321 
E_coul   =         0.0000 E_long   =         0.0000 Press    =        -4.0057
------------ Step           2460 ----- CPU =    0.1391852 (sec) -------------
TotEng   =       178.0661 KinEng   =        91.9381 Temp     =       311.5487 
PotEng   =        86.1280 E_bond   =        35.7973 E_angle  =        28.1019 
E_dihed  =        22.2609 E_impro  =         0.0000 E_vdwl   =        -0.0321 
E_coul   =         0.0000 E_long   =         0.0000 Press    =         1.6155
------------ Step           2480 ----- CPU =    0.1400741 (sec) -------------
TotEng   =       179.5132 KinEng   =        95.9250 Temp     =       325.0591 
PotEng   =        83.5882 E_bond   =        30.1463 E_angle  =        26.7263 
E_dihed  =        26.7476 E_impro  =         0.0000 E_vdwl   =        -0.0320 
E_coul   =         0.0000 E_long   =         0.0000 Press    =         6.4158
------------ Step           2500 ----- CPU =    0.1413846 (sec) -------------
TotEng   =       180.8454 KinEng   =        79.7141 Temp     =       270.1256 
PotEng   =       101.1313 E_bond   =        36.6727 E_angle  =        37.7330 
E_dihed  =        26.7576 E_impro  =         0.0000 E_vdwl   =        -0.0320 
E_coul   =         0.0000 E_long   =         0.0000 Press    =        -3.1958
------------ Step           2520 ----- CPU =    0.1431855 (sec) -------------
TotEng   =       182.1041 KinEng   =       100.4709 Temp     =       340.4638 
PotEng   =        81.6331 E_bond   =        31.6381 E_angle  =        26.0924 
E_dihed  =        23.9347 E_impro  =         0.0000 E_vdwl   =        -0.0320 
E_coul   =         0.0000 E_long   =         0.0000 Press    =         1.5474
------------ Step           2540 ----- CPU =    0.1438854 (sec) -------------
TotEng   =       182.9592 KinEng   =        90.4626 Temp     =       306.5488 
PotEng   =        92.4966 E_bond   =        39.2741 E_angle  =        27.1956 
E_dihed  =        26.0590 E_impro  =         0.0000 E_vdwl   =        -0.0321 
E_coul   =         0.0000 E_long   =         0.0000 Press    =         5.4000
------------ Step           2560 ----- CPU =    0.1447662 (sec) -------------
TotEng   =       183.2863 KinEng   =        84.8034 Temp     =       287.3714 
PotEng   =        98.4829 E_bond   =        32.0593 E_angle  =        33.6267 
E_dihed  =        32.8289 E_impro  =         0.0000 E_vdwl   =        -0.0320 
E_coul   =         0.0000 E_long   =         0.0000 Press    =        -2.8139
------------ Step           2580 ----- CPU =    0.1456385 (sec) -------------
TotEng   =       183.8352 KinEng   =        83.6286 Temp     =       283.3905 
PotEng   =       100.2066 E_bond   =        38.4193 E_angle  =        25.5796 
E_dihed  =        36.2396 E_impro  =         0.0000 E_vdwl   =        -0.0320 
E_coul   =         0.0000 E_long   =         0.0000 Press    =         0.6277
------------ Step           2600 ----- CPU =    0.1464836 (sec) -------------
TotEng   =       184.6148 KinEng   =        90.9848 Temp     =       308.3184 
PotEng   =        93.6300 E_bond   =        34.4376 E_angle  =        24.5708 
E_dihed  =        34.6533 E_impro  =         0.0000 E_vdwl   =        -0.0318 
E_coul   =         0.0000 E_long   =         0.0000 Press    =         4.2224
------------ Step           2620 ----- CPU =    0.1473764 (sec) -------------
TotEng   =       185.7439 KinEng   =        81.0278 Temp     =       274.5772 
PotEng   =       104.7161 E_bond   =        42.5428 E_angle  =        29.3153 
E_dihed  =        32.8898 E_impro  =         0.0000 E_vdwl   =        -0.0317 
E_coul   =         0.0000 E_long   =         0.0000 Press    =        -2.4935
------------ Step           2640 ----- CPU =    0.1480329 (sec) -------------
TotEng   =       186.6316 KinEng   =        99.1020 Temp     =       335.8248 
PotEng   =        87.5297 E_bond   =        31.3564 E_angle  =        23.7426 
E_dihed  =        32.4625 E_impro  =         0.0000 E_vdwl   =        -0.0318 
E_coul   =         0.0000 E_long   =         0.0000 Press    =         2.1499
------------ Step           2660 ----- CPU =    0.1487457 (sec) -------------
TotEng   =       187.6455 KinEng   =        96.8792 Temp     =       328.2925 
PotEng   =        90.7663 E_bond   =        31.4802 E_angle  =        26.5279 
E_dihed  =        32.7901 E_impro  =         0.0000 E_vdwl   =        -0.0320 
E_coul   =         0.0000 E_long   =         0.0000 Press    =         4.8319
------------ Step           2680 ----- CPU =    0.1493368 (sec) -------------
TotEng   =       188.3540 KinEng   =        85.4923 Temp     =       289.7060 
PotEng   =       102.8617 E_bond   =        42.3790 E_angle  =        28.9180 
E_dihed  =        31.5968 E_impro  =         0.0000 E_vdwl   =        -0.0321 
E_coul   =         0.0000 E_long   =         0.0000 Press    =        -1.9962
------------ Step           2700 ----- CPU =    0.1499352 (sec) -------------
TotEng   =       188.7313 KinEng   =       101.5903 Temp     =       344.2568 
PotEng   =        87.1410 E_bond   =        31.8071 E_angle  =        25.3868 
E_dihed  =        29.9792 E_impro  =         0.0000 E_vdwl   =        -0.0320 
E_coul   =         0.0000 E_long   =         0.0000 Press    =         2.4702
------------ Step           2720 ----- CPU =    0.1508095 (sec) -------------
TotEng   =       188.6209 KinEng   =        98.9324 Temp     =       335.2503 
PotEng   =        89.6884 E_bond   =        31.4807 E_angle  =        28.0901 
E_dihed  =        30.1496 E_impro  =         0.0000 E_vdwl   =        -0.0319 
E_coul   =         0.0000 E_long   =         0.0000 Press    =         4.2163
------------ Step           2740 ----- CPU =    0.1515461 (sec) -------------
TotEng   =       187.5722 KinEng   =        98.4680 Temp     =       333.6767 
PotEng   =        89.1041 E_bond   =        34.6253 E_angle  =        24.7117 
E_dihed  =        29.7988 E_impro  =         0.0000 E_vdwl   =        -0.0318 
E_coul   =         0.0000 E_long   =         0.0000 Press    =        -2.7360
------------ Step           2760 ----- CPU =    0.1523956 (sec) -------------
TotEng   =       185.2601 KinEng   =        88.8419 Temp     =       301.0566 
PotEng   =        96.4182 E_bond   =        37.8193 E_angle  =        30.0342 
E_dihed  =        28.5964 E_impro  =         0.0000 E_vdwl   =        -0.0317 
E_coul   =         0.0000 E_long   =         0.0000 Press    =         0.9507
------------ Step           2780 ----- CPU =    0.1533268 (sec) -------------
TotEng   =       181.8997 KinEng   =        96.1800 Temp     =       325.9230 
PotEng   =        85.7197 E_bond   =        36.5983 E_angle  =        22.6922 
E_dihed  =        26.4607 E_impro  =         0.0000 E_vdwl   =        -0.0315 
E_coul   =         0.0000 E_long   =         0.0000 Press    =         3.2629
------------ Step           2800 ----- CPU =    0.1546116 (sec) -------------
TotEng   =       177.5866 KinEng   =        89.6284 Temp     =       303.7218 
PotEng   =        87.9582 E_bond   =        32.8433 E_angle  =        29.2269 
E_dihed  =        25.9194 E_impro  =         0.0000 E_vdwl   =        -0.0313 
E_coul   =         0.0000 E_long   =         0.0000 Press    =        -3.1396
------------ Step           2820 ----- CPU =    0.1555509 (sec) -------------
TotEng   =       173.5867 KinEng   =        80.6375 Temp     =       273.2545 
PotEng   =        92.9492 E_bond   =        35.0063 E_angle  =        30.9275 
E_dihed  =        27.0467 E_impro  =         0.0000 E_vdwl   =        -0.0312 
E_coul   =         0.0000 E_long   =         0.0000 Press    =         0.2432
------------ Step           2840 ----- CPU =    0.1568806 (sec) -------------
TotEng   =       170.5037 KinEng   =        76.8572 Temp     =       260.4443 
PotEng   =        93.6465 E_bond   =        37.0185 E_angle  =        30.3955 
E_dihed  =        26.2638 E_impro  =         0.0000 E_vdwl   =        -0.0313 
E_coul   =         0.0000 E_long   =         0.0000 Press    =         2.7194
------------ Step           2860 ----- CPU =    0.1577027 (sec) -------------
TotEng   =       168.1694 KinEng   =        84.7504 Temp     =       287.1920 
PotEng   =        83.4189 E_bond   =        29.2306 E_angle  =        28.6648 
E_dihed  =        25.5548 E_impro  =         0.0000 E_vdwl   =        -0.0313 
E_coul   =         0.0000 E_long   =         0.0000 Press    =        -2.9733
------------ Step           2880 ----- CPU =     0.158321 (sec) -------------
TotEng   =       166.8794 KinEng   =        75.7884 Temp     =       256.8227 
PotEng   =        91.0909 E_bond   =        34.5937 E_angle  =        29.0988 
E_dihed  =        27.4298 E_impro  =         0.0000 E_vdwl   =        -0.0314 
E_coul   =         0.0000 E_long   =         0.0000 Press    =         0.3318
------------ Step           2900 ----- CPU =    0.1589227 (sec) -------------
TotEng   =       166.4592 KinEng   =        76.2733 Temp     =       258.4659 
PotEng   =        90.1859 E_bond   =        32.9959 E_angle  =        29.5656 
E_dihed  =        27.6557 E_impro  =         0.0000 E_vdwl   =        -0.0314 
E_coul   =         0.0000 E_long   =         0.0000 Press    =         2.6784
------------ Step           2920 ----- CPU =    0.1599098 (sec) -------------
TotEng   =       166.6398 KinEng   =        87.3094 Temp     =       295.8634 
PotEng   =        79.3304 E_bond   =        27.8453 E_angle  =        28.4697 
E_dihed  =        23.0468 E_impro  =         0.0000 E_vdwl   =        -0.0314 
E_coul   =         0.0000 E_long   =         0.0000 Press    =        -3.2775
------------ Step           2940 ----- CPU =    0.1605301 (sec) -------------
TotEng   =       167.3554 KinEng   =        87.1849 Temp     =       295.4416 
PotEng   =        80.1705 E_bond   =        30.2167 E_angle  =        28.5337 
E_dihed  =        21.4515 E_impro  =         0.0000 E_vdwl   =        -0.0314 
E_coul   =         0.0000 E_long   =         0.0000 Press    =         0.9772
------------ Step           2960 ----- CPU =    0.1615021 (sec) -------------
TotEng   =       168.2882 KinEng   =        78.5078 Temp     =       266.0378 
PotEng   =        89.7804 E_bond   =        34.2101 E_angle  =        30.0030 
E_dihed  =        25.5988 E_impro  =         0.0000 E_vdwl   =        -0.0315 
E_coul   =         0.0000 E_long   =         0.0000 Press    =         3.4249
------------ Step           2980 ----- CPU =    0.1621268 (sec) -------------
TotEng   =       169.7953 KinEng   =        80.3795 Temp     =       272.3804 
PotEng   =        89.4158 E_bond   =        33.2629 E_angle  =        27.5978 
E_dihed  =        28.5865 E_impro  =         0.0000 E_vdwl   =        -0.0313 
E_coul   =         0.0000 E_long   =         0.0000 Press    =        -3.5439
------------ Step           3000 ----- CPU =    0.1629342 (sec) -------------
TotEng   =       171.9484 KinEng   =        96.3049 Temp     =       326.3464 
PotEng   =        75.6436 E_bond   =        23.3299 E_angle  =        26.5080 
E_dihed  =        25.8368 E_impro  =         0.0000 E_vdwl   =        -0.0311 
E_coul   =         0.0000 E_long   =         0.0000 Press    =         0.0516
------------ Step           3020 ----- CPU =    0.1640249 (sec) -------------
TotEng   =       174.7991 KinEng   =        86.0176 Temp     =       291.4860 
PotEng   =        88.7815 E_bond   =        39.6730 E_angle  =        22.9811 
E_dihed  =        26.1584 E_impro  =         0.0000 E_vdwl   =        -0.0310 
E_coul   =         0.0000 E_long   =         0.0000 Press    =         2.9712
------------ Step           3040 ----- CPU =    0.1646758 (sec) -------------
TotEng   =       177.1287 KinEng   =        90.8435 Temp     =       307.8395 
PotEng   =        86.2852 E_bond   =        33.9190 E_angle  =        21.6669 
E_dihed  =        30.7302 E_impro  =         0.0000 E_vdwl   =        -0.0310 
E_coul   =         0.0000 E_long   =         0.0000 Press    =        -3.2898
------------ Step           3060 ----- CPU =      0.16539 (sec) -------------
TotEng   =       179.2939 KinEng   =        96.4845 Temp     =       326.9550 
PotEng   =        82.8094 E_bond   =        32.1171 E_angle  =        18.4505 
E_dihed  =        32.2729 E_impro  =         0.0000 E_vdwl   =        -0.0311 
E_coul   =         0.0000 E_long   =         0.0000 Press    =        -0.4320
------------ Step           3080 ----- CPU =    0.1659773 (sec) -------------
TotEng   =       181.3502 KinEng   =        90.1735 Temp     =       305.5690 
PotEng   =        91.1767 E_bond   =        32.0777 E_angle  =        26.9572 
E_dihed  =        32.1727 E_impro  =         0.0000 E_vdwl   =        -0.0310 
E_coul   =         0.0000 E_long   =         0.0000 Press    =         3.6228
------------ Step           3100 ----- CPU =    0.1665277 (sec) -------------
TotEng   =       183.0448 KinEng   =        92.8314 Temp     =       314.5760 
PotEng   =        90.2134 E_bond   =        37.1126 E_angle  =        19.4926 
E_dihed  =        33.6389 E_impro  =         0.0000 E_vdwl   =        -0.0307 
E_coul   =         0.0000 E_long   =         0.0000 Press    =        -2.2507
------------ Step           3120 ----- CPU =    0.1671801 (sec) -------------
TotEng   =       184.4866 KinEng   =        92.5837 Temp     =       313.7365 
PotEng   =        91.9029 E_bond   =        37.8151 E_angle  =        18.2289 
E_dihed  =        35.8894 E_impro  =         0.0000 E_vdwl   =        -0.0306 
E_coul   =         0.0000 E_long   =         0.0000 Press    =        -1.8951
------------ Step           3140 ----- CPU =    0.1679392 (sec) -------------
TotEng   =       185.5457 KinEng   =        98.2393 Temp     =       332.9016 
PotEng   =        87.3064 E_bond   =        29.6164 E_angle  =        22.1900 
E_dihed  =        35.5304 E_impro  =         0.0000 E_vdwl   =        -0.0304 
E_coul   =         0.0000 E_long   =         0.0000 Press    =         2.5620
------------ Step           3160 ----- CPU =    0.1684937 (sec) -------------
TotEng   =       186.4315 KinEng   =        92.4427 Temp     =       313.2587 
PotEng   =        93.9888 E_bond   =        38.8699 E_angle  =        20.4864 
E_dihed  =        34.6627 E_impro  =         0.0000 E_vdwl   =        -0.0302 
E_coul   =         0.0000 E_long   =         0.0000 Press    =        -2.6116
------------ Step           3180 ----- CPU =    0.1690414 (sec) -------------
TotEng   =       186.9642 KinEng   =        97.2171 Temp     =       329.4378 
PotEng   =        89.7471 E_bond   =        32.5897 E_angle  =        23.3321 
E_dihed  =        33.8556 E_impro  =         0.0000 E_vdwl   =        -0.0302 
E_coul   =         0.0000 E_long   =         0.0000 Press    =        -2.9377
------------ Step           3200 ----- CPU =    0.1696374 (sec) -------------
TotEng   =       187.4274 KinEng   =        93.3976 Temp     =       316.4946 
PotEng   =        94.0298 E_bond   =        37.1763 E_angle  =        24.4745 
E_dihed  =        32.4092 E_impro  =         0.0000 E_vdwl   =        -0.0302 
E_coul   =         0.0000 E_long   =         0.0000 Press    =         2.0125
------------ Step           3220 ----- CPU =    0.1709343 (sec) -------------
TotEng   =       187.3103 KinEng   =        98.4630 Temp     =       333.6595 
PotEng   =        88.8473 E_bond   =        32.8260 E_angle  =        24.3087 
E_dihed  =        31.7425 E_impro  =         0.0000 E_vdwl   =        -0.0300 
E_coul   =         0.0000 E_long   =         0.0000 Press    =        -2.3885
------------ Step           3240 ----- CPU =    0.1715499 (sec) -------------
TotEng   =       186.5017 KinEng   =        96.9199 Temp     =       328.4305 
PotEng   =        89.5818 E_bond   =        37.9703 E_angle  =        18.3399 
E_dihed  =        33.3013 E_impro  =         0.0000 E_vdwl   =        -0.0298 
E_coul   =         0.0000 E_long   =         0.0000 Press    =        -3.6637
------------ Step           3260 ----- CPU =    0.1723162 (sec) -------------
TotEng   =       184.6994 KinEng   =        87.1149 Temp     =       295.2046 
PotEng   =        97.5844 E_bond   =        32.3295 E_angle  =        28.9114 
E_dihed  =        36.3733 E_impro  =         0.0000 E_vdwl   =        -0.0297 
E_coul   =         0.0000 E_long   =         0.0000 Press    =         1.2410
------------ Step           3280 ----- CPU =    0.1728966 (sec) -------------
TotEng   =       182.5849 KinEng   =        82.1928 Temp     =       278.5251 
PotEng   =       100.3921 E_bond   =        41.2312 E_angle  =        22.9583 
E_dihed  =        36.2323 E_impro  =         0.0000 E_vdwl   =        -0.0297 
E_coul   =         0.0000 E_long   =         0.0000 Press    =        -3.9498
------------ Step           3300 ----- CPU =    0.1735909 (sec) -------------
TotEng   =       179.9994 KinEng   =        91.6527 Temp     =       310.5818 
PotEng   =        88.3467 E_bond   =        34.2786 E_angle  =        21.2656 
E_dihed  =        32.8322 E_impro  =         0.0000 E_vdwl   =        -0.0297 
E_coul   =         0.0000 E_long   =         0.0000 Press    =        -4.4998
------------ Step           3320 ----- CPU =    0.1745538 (sec) -------------
TotEng   =       177.1763 KinEng   =        89.5202 Temp     =       303.3553 
PotEng   =        87.6561 E_bond   =        32.2606 E_angle  =        24.9497 
E_dihed  =        30.4755 E_impro  =         0.0000 E_vdwl   =        -0.0297 
E_coul   =         0.0000 E_long   =         0.0000 Press    =         0.0788
------------ Step           3340 ----- CPU =    0.1751573 (sec) -------------
TotEng   =       174.1730 KinEng   =        83.5295 Temp     =       283.0546 
PotEng   =        90.6435 E_bond   =        39.6695 E_angle  =        19.1535 
E_dihed  =        31.8502 E_impro  =         0.0000 E_vdwl   =        -0.0298 
E_coul   =         0.0000 E_long   =         0.0000 Press    =        -5.0412
------------ Step           3360 ----- CPU =    0.1758156 (sec) -------------
TotEng   =       171.3564 KinEng   =        86.7301 Temp     =       293.9007 
PotEng   =        84.6263 E_bond   =        34.2290 E_angle  =        17.2903 
E_dihed  =        33.1368 E_impro  =         0.0000 E_vdwl   =        -0.0299 
E_coul   =         0.0000 E_long   =         0.0000 Press    =        -4.1486
------------ Step           3380 ----- CPU =    0.1764833 (sec) -------------
TotEng   =       168.9542 KinEng   =        83.8820 Temp     =       284.2492 
PotEng   =        85.0722 E_bond   =        29.8870 E_angle  =        23.4418 
E_dihed  =        31.7735 E_impro  =         0.0000 E_vdwl   =        -0.0300 
E_coul   =         0.0000 E_long   =         0.0000 Press    =         0.4859
------------ Step           3400 ----- CPU =    0.1770636 (sec) -------------
TotEng   =       167.1764 KinEng   =        81.1956 Temp     =       275.1458 
PotEng   =        85.9808 E_bond   =        31.9290 E_angle  =        24.3705 
E_dihed  =        29.7118 E_impro  =         0.0000 E_vdwl   =        -0.0304 
E_coul   =         0.0000 E_long   =         0.0000 Press    =        -4.3619
------------ Step           3420 ----- CPU =    0.1778022 (sec) -------------
TotEng   =       165.9221 KinEng   =        84.4871 Temp     =       286.2998 
PotEng   =        81.4349 E_bond   =        28.9528 E_angle  =        25.0809 
E_dihed  =        27.4320 E_impro  =         0.0000 E_vdwl   =        -0.0308 
E_coul   =         0.0000 E_long   =         0.0000 Press    =        -2.3391
------------ Step           3440 ----- CPU =    0.1787261 (sec) -------------
TotEng   =       165.3552 KinEng   =        80.5166 Temp     =       272.8449 
PotEng   =        84.8387 E_bond   =        33.5156 E_angle  =        24.9129 
E_dihed  =        26.4414 E_impro  =         0.0000 E_vdwl   =        -0.0313 
E_coul   =         0.0000 E_long   =         0.0000 Press    =         3.1834
------------ Step           3460 ----- CPU =    0.1795784 (sec) -------------
TotEng   =       164.8623 KinEng   =        86.4236 Temp     =       292.8618 
PotEng   =        78.4388 E_bond   =        25.4846 E_angle  =        26.2516 
E_dihed  =        26.7341 E_impro  =         0.0000 E_vdwl   =        -0.0316 
E_coul   =         0.0000 E_long   =         0.0000 Press    =        -1.4390
------------ Step           3480 ----- CPU =    0.1801721 (sec) -------------
TotEng   =       165.1820 KinEng   =        79.3739 Temp     =       268.9728 
PotEng   =        85.8081 E_bond   =        30.5858 E_angle  =        26.8733 
E_dihed  =        28.3808 E_impro  =         0.0000 E_vdwl   =        -0.0318 
E_coul   =         0.0000 E_long   =         0.0000 Press    =        -0.7777
------------ Step           3500 ----- CPU =    0.1807247 (sec) -------------
TotEng   =       166.2645 KinEng   =        76.4949 Temp     =       259.2169 
PotEng   =        89.7696 E_bond   =        36.8508 E_angle  =        25.5675 
E_dihed  =        27.3833 E_impro  =         0.0000 E_vdwl   =        -0.0320 
E_coul   =         0.0000 E_long   =         0.0000 Press    =         4.6024
------------ Step           3520 ----- CPU =    0.1815281 (sec) -------------
TotEng   =       168.0283 KinEng   =        86.3267 Temp     =       292.5335 
PotEng   =        81.7016 E_bond   =        33.9355 E_angle  =        23.3175 
E_dihed  =        24.4805 E_impro  =         0.0000 E_vdwl   =        -0.0319 
E_coul   =         0.0000 E_long   =         0.0000 Press    =        -0.1542
------------ Step           3540 ----- CPU =    0.1821027 (sec) -------------
TotEng   =       170.2556 KinEng   =        91.3108 Temp     =       309.4232 
PotEng   =        78.9448 E_bond   =        26.7005 E_angle  =        28.3938 
E_dihed  =        23.8825 E_impro  =         0.0000 E_vdwl   =        -0.0320 
E_coul   =         0.0000 E_long   =         0.0000 Press    =        -0.0176
------------ Step           3560 ----- CPU =    0.1826511 (sec) -------------
TotEng   =       173.0119 KinEng   =        82.0787 Temp     =       278.1385 
PotEng   =        90.9332 E_bond   =        37.8884 E_angle  =        23.7003 
E_dihed  =        29.3766 E_impro  =         0.0000 E_vdwl   =        -0.0321 
[...]
PotEng   =        88.2350 E_bond   =        35.8914 E_angle  =        23.1078 
E_dihed  =        57.6944 E_impro  =         0.0000 E_vdwl   =       -28.4586 
E_coul   =         0.0000 E_long   =         0.0000 Press    =         0.6581
------------ Step          49260 ----- CPU =     2.933325 (sec) -------------
TotEng   =       184.8800 KinEng   =        84.8257 Temp     =       287.4470 
PotEng   =       100.0543 E_bond   =        42.1162 E_angle  =        29.2070 
E_dihed  =        59.9486 E_impro  =         0.0000 E_vdwl   =       -31.2174 
E_coul   =         0.0000 E_long   =         0.0000 Press    =         0.5131
------------ Step          49280 ----- CPU =       2.9344 (sec) -------------
TotEng   =       185.8644 KinEng   =        97.1739 Temp     =       329.2913 
PotEng   =        88.6904 E_bond   =        32.1004 E_angle  =        29.3068 
E_dihed  =        59.5617 E_impro  =         0.0000 E_vdwl   =       -32.2784 
E_coul   =         0.0000 E_long   =         0.0000 Press    =         0.3464
------------ Step          49300 ----- CPU =     2.935488 (sec) -------------
TotEng   =       186.4732 KinEng   =        94.6065 Temp     =       320.5912 
PotEng   =        91.8666 E_bond   =        35.3008 E_angle  =        32.4693 
E_dihed  =        57.7396 E_impro  =         0.0000 E_vdwl   =       -33.6430 
E_coul   =         0.0000 E_long   =         0.0000 Press    =         1.3945
------------ Step          49320 ----- CPU =     2.937539 (sec) -------------
TotEng   =       186.6192 KinEng   =        91.2091 Temp     =       309.0784 
PotEng   =        95.4101 E_bond   =        41.5530 E_angle  =        28.6090 
E_dihed  =        59.5734 E_impro  =         0.0000 E_vdwl   =       -34.3253 
E_coul   =         0.0000 E_long   =         0.0000 Press    =         1.0492
------------ Step          49340 ----- CPU =     2.938839 (sec) -------------
TotEng   =       185.8826 KinEng   =        93.4920 Temp     =       316.8145 
PotEng   =        92.3905 E_bond   =        38.3879 E_angle  =        29.1770 
E_dihed  =        57.1562 E_impro  =         0.0000 E_vdwl   =       -32.3306 
E_coul   =         0.0000 E_long   =         0.0000 Press    =         0.4348
------------ Step          49360 ----- CPU =     2.939928 (sec) -------------
TotEng   =       184.6758 KinEng   =        91.8548 Temp     =       311.2664 
PotEng   =        92.8211 E_bond   =        39.3494 E_angle  =        30.3777 
E_dihed  =        56.8853 E_impro  =         0.0000 E_vdwl   =       -33.7914 
E_coul   =         0.0000 E_long   =         0.0000 Press    =         0.0196
------------ Step          49380 ----- CPU =     2.940943 (sec) -------------
TotEng   =       182.7102 KinEng   =        94.0421 Temp     =       318.6787 
PotEng   =        88.6680 E_bond   =        26.4902 E_angle  =        35.1055 
E_dihed  =        57.4248 E_impro  =         0.0000 E_vdwl   =       -30.3524 
E_coul   =         0.0000 E_long   =         0.0000 Press    =         2.0003
------------ Step          49400 ----- CPU =     2.942056 (sec) -------------
TotEng   =       180.6825 KinEng   =        80.0036 Temp     =       271.1065 
PotEng   =       100.6789 E_bond   =        40.6431 E_angle  =        33.1391 
E_dihed  =        57.8157 E_impro  =         0.0000 E_vdwl   =       -30.9189 
E_coul   =         0.0000 E_long   =         0.0000 Press    =        -1.0329
------------ Step          49420 ----- CPU =     2.943197 (sec) -------------
TotEng   =       177.7931 KinEng   =        96.1168 Temp     =       325.7089 
PotEng   =        81.6764 E_bond   =        26.9743 E_angle  =        28.3231 
E_dihed  =        60.2710 E_impro  =         0.0000 E_vdwl   =       -33.8921 
E_coul   =         0.0000 E_long   =         0.0000 Press    =         1.6524
------------ Step          49440 ----- CPU =     2.944195 (sec) -------------
TotEng   =       174.1341 KinEng   =        95.3422 Temp     =       323.0841 
PotEng   =        78.7919 E_bond   =        33.3161 E_angle  =        17.9026 
E_dihed  =        60.9221 E_impro  =         0.0000 E_vdwl   =       -33.3489 
E_coul   =         0.0000 E_long   =         0.0000 Press    =         2.6139
------------ Step          49460 ----- CPU =      2.94519 (sec) -------------
TotEng   =       170.2064 KinEng   =        79.4924 Temp     =       269.3744 
PotEng   =        90.7140 E_bond   =        33.2240 E_angle  =        28.4842 
E_dihed  =        61.1467 E_impro  =         0.0000 E_vdwl   =       -32.1409 
E_coul   =         0.0000 E_long   =         0.0000 Press    =        -4.7168
------------ Step          49480 ----- CPU =     2.946201 (sec) -------------
TotEng   =       166.6195 KinEng   =        89.0030 Temp     =       301.6026 
PotEng   =        77.6165 E_bond   =        26.9039 E_angle  =        27.5028 
E_dihed  =        54.9827 E_impro  =         0.0000 E_vdwl   =       -31.7729 
E_coul   =         0.0000 E_long   =         0.0000 Press    =         0.2507
------------ Step          49500 ----- CPU =     2.947484 (sec) -------------
TotEng   =       163.5904 KinEng   =        89.9241 Temp     =       304.7238 
PotEng   =        73.6663 E_bond   =        25.7847 E_angle  =        28.5315 
E_dihed  =        49.1015 E_impro  =         0.0000 E_vdwl   =       -29.7514 
E_coul   =         0.0000 E_long   =         0.0000 Press    =        -0.5242
------------ Step          49520 ----- CPU =      2.94908 (sec) -------------
TotEng   =       161.3933 KinEng   =        76.3821 Temp     =       258.8346 
PotEng   =        85.0111 E_bond   =        36.6216 E_angle  =        22.3289 
E_dihed  =        53.0014 E_impro  =         0.0000 E_vdwl   =       -26.9408 
E_coul   =         0.0000 E_long   =         0.0000 Press    =        -4.0857
------------ Step          49540 ----- CPU =     2.950485 (sec) -------------
TotEng   =       159.8578 KinEng   =        81.4771 Temp     =       276.0999 
PotEng   =        78.3807 E_bond   =        28.0356 E_angle  =        23.7889 
E_dihed  =        55.3621 E_impro  =         0.0000 E_vdwl   =       -28.8059 
E_coul   =         0.0000 E_long   =         0.0000 Press    =         4.4737
------------ Step          49560 ----- CPU =     2.951543 (sec) -------------
TotEng   =       159.2326 KinEng   =        83.4497 Temp     =       282.7844 
PotEng   =        75.7829 E_bond   =        32.3017 E_angle  =        20.5555 
E_dihed  =        52.8146 E_impro  =         0.0000 E_vdwl   =       -29.8889 
E_coul   =         0.0000 E_long   =         0.0000 Press    =        -3.4250
------------ Step          49580 ----- CPU =     2.952654 (sec) -------------
TotEng   =       159.0908 KinEng   =        74.4817 Temp     =       252.3947 
PotEng   =        84.6091 E_bond   =        35.3834 E_angle  =        26.2847 
E_dihed  =        53.3142 E_impro  =         0.0000 E_vdwl   =       -30.3733 
E_coul   =         0.0000 E_long   =         0.0000 Press    =        -2.2632
------------ Step          49600 ----- CPU =      2.95437 (sec) -------------
TotEng   =       159.3624 KinEng   =        83.3979 Temp     =       282.6086 
PotEng   =        75.9645 E_bond   =        28.4326 E_angle  =        26.8077 
E_dihed  =        52.1531 E_impro  =         0.0000 E_vdwl   =       -31.4289 
E_coul   =         0.0000 E_long   =         0.0000 Press    =         3.7723
------------ Step          49620 ----- CPU =     2.955696 (sec) -------------
TotEng   =       160.1586 KinEng   =        85.6864 Temp     =       290.3636 
PotEng   =        74.4722 E_bond   =        31.2587 E_angle  =        24.7631 
E_dihed  =        49.9336 E_impro  =         0.0000 E_vdwl   =       -31.4832 
E_coul   =         0.0000 E_long   =         0.0000 Press    =        -6.6760
------------ Step          49640 ----- CPU =     2.956819 (sec) -------------
TotEng   =       160.9468 KinEng   =        82.1956 Temp     =       278.5345 
PotEng   =        78.7512 E_bond   =        33.7099 E_angle  =        25.1904 
E_dihed  =        50.9231 E_impro  =         0.0000 E_vdwl   =       -31.0723 
E_coul   =         0.0000 E_long   =         0.0000 Press    =         1.2857
------------ Step          49660 ----- CPU =     2.958386 (sec) -------------
TotEng   =       161.7860 KinEng   =        85.7097 Temp     =       290.4427 
PotEng   =        76.0763 E_bond   =        32.8641 E_angle  =        23.6619 
E_dihed  =        52.3256 E_impro  =         0.0000 E_vdwl   =       -32.7753 
E_coul   =         0.0000 E_long   =         0.0000 Press    =         1.8565
------------ Step          49680 ----- CPU =     2.959402 (sec) -------------
TotEng   =       162.6824 KinEng   =        83.9880 Temp     =       284.6083 
PotEng   =        78.6944 E_bond   =        25.9952 E_angle  =        29.3474 
E_dihed  =        56.9979 E_impro  =         0.0000 E_vdwl   =       -33.6461 
E_coul   =         0.0000 E_long   =         0.0000 Press    =        -4.8590
------------ Step          49700 ----- CPU =     2.960418 (sec) -------------
TotEng   =       163.8815 KinEng   =        84.0743 Temp     =       284.9009 
PotEng   =        79.8072 E_bond   =        26.6022 E_angle  =        27.4043 
E_dihed  =        58.4310 E_impro  =         0.0000 E_vdwl   =       -32.6302 
E_coul   =         0.0000 E_long   =         0.0000 Press    =         2.6770
------------ Step          49720 ----- CPU =     2.961565 (sec) -------------
TotEng   =       165.4799 KinEng   =        84.1097 Temp     =       285.0208 
PotEng   =        81.3702 E_bond   =        32.4436 E_angle  =        25.1438 
E_dihed  =        56.3026 E_impro  =         0.0000 E_vdwl   =       -32.5199 
E_coul   =         0.0000 E_long   =         0.0000 Press    =        -2.2502
------------ Step          49740 ----- CPU =     2.962636 (sec) -------------
TotEng   =       167.0968 KinEng   =        86.6630 Temp     =       293.6732 
PotEng   =        80.4337 E_bond   =        32.0584 E_angle  =        28.4943 
E_dihed  =        53.5584 E_impro  =         0.0000 E_vdwl   =       -33.6773 
E_coul   =         0.0000 E_long   =         0.0000 Press    =        -1.9185
------------ Step          49760 ----- CPU =     2.963852 (sec) -------------
TotEng   =       168.3824 KinEng   =        99.7661 Temp     =       338.0752 
PotEng   =        68.6164 E_bond   =        28.6241 E_angle  =        22.8873 
E_dihed  =        51.3105 E_impro  =         0.0000 E_vdwl   =       -34.2056 
E_coul   =         0.0000 E_long   =         0.0000 Press    =         4.7293
------------ Step          49780 ----- CPU =     2.965057 (sec) -------------
TotEng   =       169.1714 KinEng   =        91.6247 Temp     =       310.4869 
PotEng   =        77.5466 E_bond   =        36.8221 E_angle  =        23.0519 
E_dihed  =        49.3539 E_impro  =         0.0000 E_vdwl   =       -31.6813 
E_coul   =         0.0000 E_long   =         0.0000 Press    =         0.2490
------------ Step          49800 ----- CPU =     2.966314 (sec) -------------
TotEng   =       169.1515 KinEng   =        92.2981 Temp     =       312.7688 
PotEng   =        76.8533 E_bond   =        28.9642 E_angle  =        34.3512 
E_dihed  =        46.2822 E_impro  =         0.0000 E_vdwl   =       -32.7442 
E_coul   =         0.0000 E_long   =         0.0000 Press    =         1.9929
------------ Step          49820 ----- CPU =     2.967498 (sec) -------------
TotEng   =       168.8249 KinEng   =        90.9953 Temp     =       308.3539 
PotEng   =        77.8296 E_bond   =        34.6833 E_angle  =        28.8509 
E_dihed  =        45.9330 E_impro  =         0.0000 E_vdwl   =       -31.6377 
E_coul   =         0.0000 E_long   =         0.0000 Press    =         3.0398
------------ Step          49840 ----- CPU =     2.968538 (sec) -------------
TotEng   =       168.4386 KinEng   =        88.2769 Temp     =       299.1420 
PotEng   =        80.1618 E_bond   =        32.5724 E_angle  =        27.4120 
E_dihed  =        50.9551 E_impro  =         0.0000 E_vdwl   =       -30.7777 
E_coul   =         0.0000 E_long   =         0.0000 Press    =         0.5063
------------ Step          49860 ----- CPU =     2.969788 (sec) -------------
TotEng   =       167.9725 KinEng   =        95.8738 Temp     =       324.8855 
PotEng   =        72.0987 E_bond   =        34.0806 E_angle  =        19.7741 
E_dihed  =        51.0839 E_impro  =         0.0000 E_vdwl   =       -32.8399 
E_coul   =         0.0000 E_long   =         0.0000 Press    =        -1.1193
------------ Step          49880 ----- CPU =     2.971292 (sec) -------------
TotEng   =       167.2390 KinEng   =        88.3165 Temp     =       299.2763 
PotEng   =        78.9225 E_bond   =        35.1504 E_angle  =        25.0249 
E_dihed  =        51.8189 E_impro  =         0.0000 E_vdwl   =       -33.0717 
E_coul   =         0.0000 E_long   =         0.0000 Press    =         0.1357
------------ Step          49900 ----- CPU =     2.972499 (sec) -------------
TotEng   =       166.3362 KinEng   =        84.1960 Temp     =       285.3133 
PotEng   =        82.1401 E_bond   =        31.4510 E_angle  =        30.0231 
E_dihed  =        55.3152 E_impro  =         0.0000 E_vdwl   =       -34.6492 
E_coul   =         0.0000 E_long   =         0.0000 Press    =        -0.7627
------------ Step          49920 ----- CPU =     2.973966 (sec) -------------
TotEng   =       165.7762 KinEng   =        90.8135 Temp     =       307.7380 
PotEng   =        74.9626 E_bond   =        27.3197 E_angle  =        30.3796 
E_dihed  =        52.5920 E_impro  =         0.0000 E_vdwl   =       -35.3286 
E_coul   =         0.0000 E_long   =         0.0000 Press    =        -2.4753
------------ Step          49940 ----- CPU =     2.975219 (sec) -------------
TotEng   =       165.5327 KinEng   =        83.8741 Temp     =       284.2225 
PotEng   =        81.6586 E_bond   =        37.6954 E_angle  =        29.0850 
E_dihed  =        48.6071 E_impro  =         0.0000 E_vdwl   =       -33.7289 
E_coul   =         0.0000 E_long   =         0.0000 Press    =         2.2504
------------ Step          49960 ----- CPU =     2.976353 (sec) -------------
TotEng   =       165.0189 KinEng   =        92.4733 Temp     =       313.3624 
PotEng   =        72.5456 E_bond   =        29.7708 E_angle  =        30.3996 
E_dihed  =        48.5693 E_impro  =         0.0000 E_vdwl   =       -36.1942 
E_coul   =         0.0000 E_long   =         0.0000 Press    =        -0.2816
------------ Step          49980 ----- CPU =     2.977396 (sec) -------------
TotEng   =       164.4357 KinEng   =        91.5258 Temp     =       310.1515 
PotEng   =        72.9099 E_bond   =        34.6319 E_angle  =        25.9455 
E_dihed  =        49.3765 E_impro  =         0.0000 E_vdwl   =       -37.0441 
E_coul   =         0.0000 E_long   =         0.0000 Press    =        -0.4781
------------ Step          50000 ----- CPU =     2.978501 (sec) -------------
TotEng   =       163.4225 KinEng   =        88.2232 Temp     =       298.9602 
PotEng   =        75.1993 E_bond   =        31.6289 E_angle  =        29.1061 
E_dihed  =        53.0373 E_impro  =         0.0000 E_vdwl   =       -38.5729 
E_coul   =         0.0000 E_long   =         0.0000 Press    =         3.9910
------------ Step          50020 ----- CPU =     2.979786 (sec) -------------
TotEng   =       161.6368 KinEng   =        86.0265 Temp     =       291.5164 
PotEng   =        75.6102 E_bond   =        30.5061 E_angle  =        30.4088 
E_dihed  =        52.5121 E_impro  =         0.0000 E_vdwl   =       -37.8169 
E_coul   =         0.0000 E_long   =         0.0000 Press    =        -1.3851
------------ Step          50040 ----- CPU =     2.981041 (sec) -------------
TotEng   =       158.7809 KinEng   =        87.9099 Temp     =       297.8986 
PotEng   =        70.8709 E_bond   =        29.0385 E_angle  =        25.1082 
E_dihed  =        52.2189 E_impro  =         0.0000 E_vdwl   =       -35.4948 
E_coul   =         0.0000 E_long   =         0.0000 Press    =         2.4509
------------ Step          50060 ----- CPU =     2.982219 (sec) -------------
TotEng   =       155.4073 KinEng   =        76.4339 Temp     =       259.0098 
PotEng   =        78.9735 E_bond   =        32.5911 E_angle  =        24.6036 
E_dihed  =        54.6306 E_impro  =         0.0000 E_vdwl   =       -32.8519 
E_coul   =         0.0000 E_long   =         0.0000 Press    =         3.2386
------------ Step          50080 ----- CPU =     2.983609 (sec) -------------
TotEng   =       151.7332 KinEng   =        82.7885 Temp     =       280.5438 
PotEng   =        68.9447 E_bond   =        25.3106 E_angle  =        25.0897 
E_dihed  =        53.2122 E_impro  =         0.0000 E_vdwl   =       -34.6678 
E_coul   =         0.0000 E_long   =         0.0000 Press    =        -2.8891
------------ Step          50100 ----- CPU =     2.984779 (sec) -------------
TotEng   =       148.4916 KinEng   =        74.1697 Temp     =       251.3372 
PotEng   =        74.3219 E_bond   =        30.0827 E_angle  =        25.8669 
E_dihed  =        52.4717 E_impro  =         0.0000 E_vdwl   =       -34.0993 
E_coul   =         0.0000 E_long   =         0.0000 Press    =         0.9879
------------ Step          50120 ----- CPU =     2.986018 (sec) -------------
TotEng   =       145.9638 KinEng   =        84.7828 Temp     =       287.3018 
PotEng   =        61.1810 E_bond   =        27.8699 E_angle  =        22.1017 
E_dihed  =        47.7701 E_impro  =         0.0000 E_vdwl   =       -36.5608 
E_coul   =         0.0000 E_long   =         0.0000 Press    =        -1.3295
------------ Step          50140 ----- CPU =     2.987156 (sec) -------------
TotEng   =       143.9942 KinEng   =        74.3655 Temp     =       252.0009 
PotEng   =        69.6287 E_bond   =        33.0654 E_angle  =        20.5248 
E_dihed  =        48.9837 E_impro  =         0.0000 E_vdwl   =       -32.9452 
E_coul   =         0.0000 E_long   =         0.0000 Press    =         0.1146
------------ Step          50144 ----- CPU =     2.987451 (sec) -------------
TotEng   =       143.7494 KinEng   =        72.0071 Temp     =       244.0091 
PotEng   =        71.7422 E_bond   =        33.3374 E_angle  =        22.6035 
E_dihed  =        49.0897 E_impro  =         0.0000 E_vdwl   =       -33.2883 
E_coul   =         0.0000 E_long   =         0.0000 Press    =        -1.0430
Loop time of 2.98747 on 1 procs for 50000 steps with 100 atoms

Performance: 1446.042 ns/day, 0.017 hours/ns, 16736.592 timesteps/s, 1.674 Matom-step/s
73.1% CPU use with 1 MPI tasks x no OpenMP threads

MPI task timing breakdown:
Section |  min time  |  avg time  |  max time  |%varavg| %total
---------------------------------------------------------------
Pair    | 0.87244    | 0.87244    | 0.87244    |   0.0 | 29.20
Bond    | 0.84235    | 0.84235    | 0.84235    |   0.0 | 28.20
Neigh   | 0.22746    | 0.22746    | 0.22746    |   0.0 |  7.61
Comm    | 0.016924   | 0.016924   | 0.016924   |   0.0 |  0.57
Output  | 0.35217    | 0.35217    | 0.35217    |   0.0 | 11.79
Modify  | 0.64118    | 0.64118    | 0.64118    |   0.0 | 21.46
Other   |            | 0.03495    |            |       |  1.17

Nlocal:            100 ave         100 max         100 min
Histogram: 1 0 0 0 0 0 0 0 0 0
Nghost:              0 ave           0 max           0 min
Histogram: 1 0 0 0 0 0 0 0 0 0
Neighs:           2158 ave        2158 max        2158 min
Histogram: 1 0 0 0 0 0 0 0 0 0
FullNghs:            0 ave           0 max           0 min
Histogram: 1 0 0 0 0 0 0 0 0 0

Total # of neighbors = 2158
Ave neighs/atom = 21.58
Ave special neighs/atom = 5.88
Neighbor list builds = 2467
Dangerous builds = 2

print "All done"
All done
write_data final.data nofix
System init for write_data ...
Generated 0 of 3 mixed pair_coeff terms from geometric mixing rule
WARNING: Not all mixed pair coeffs generated from mixing. Use write_data with 'pair ij' option to store all pair coeffs. (src/src/write_data.cpp:326)
Total wall time: 0:00:05
