LAMMPS (2 Aug 2023 - Update 2)
# VARIABLES

variable fname index InitialFile.txt
variable simname index InitialFile
variable lj_epsilon equal 1.0
variable lj_sigma equal 2.0

# Initialization
units		real
boundary	f f f
atom_style	molecular
log 		log.${simname}.txt
log 		log.InitialFile.txt
