read_data	InitialFile.txt
Reading data file ...
  orthogonal box = (0 0 0) to (1000 1000 1000)
  1 by 1 by 1 MPI processor grid
  reading atom labelmap ...
  reading bond labelmap ...
  reading atoms ...
  100 atoms
  scanning bonds ...
  1 = max bonds/atom
  reading bonds ...
  99 bonds
Finding 1-2 1-3 1-4 neighbors ...
  special bond factors lj:    0        0        0       
  special bond factors coul:  0        0        0       
     2 = max # of 1-2 neighbors
     2 = max # of 1-3 neighbors
     4 = max # of 1-4 neighbors
     6 = max # of special neighbors
  special bonds CPU = 0.000 seconds
  read_data CPU = 0.002 seconds

labelmap atom 1 A 2 U 3 M

# Dreiding potential information
neighbor	0.4 bin
neigh_modify every 1 delay 0 check yes

bond_style      harmonic
bond_coeff	Normal 1 1
bond_coeff	M-M 2 0.5

#angle_style     harmonic
#angle_coeff	Normal 60 109.5
#angle_coeff	M-M 120 109.5

#dihedral_style	multi/harmonic
#dihedral_coeff	1 1.73 -4.49 0.776 6.99 0.0
#dihedral_coeff	2 1.73 -4.49 0.776 6.99 0.0

pair_style	lj/cut 5.0
pair_coeff	* * 1 1
pair_coeff	M M 2 0.5

compute csym all centro/atom fcc
compute peratom all pe/atom


#####################################################
# Equilibration (Brownian dynamics)

velocity 	all create 1.0 1231
fix		1 all nve/limit 0.5
fix 2 all brownian 1.0 12908410 gamma_t 1.0 rng gaussian
thermo_style	custom step temp
thermo          10000
timestep	1
run		100000
Generated 0 of 3 mixed pair_coeff terms from geometric mixing rule
WARNING: One or more atoms are time integrated more than once (src/src/modify.cpp:289)
Neighbor list info ...
  update: every = 1 steps, delay = 0 steps, check = yes
  max neighbors/atom: 2000, page size: 100000
  master list distance cutoff = 5.4
  ghost atom cutoff = 5.4
  binsize = 2.7, bins = 371 371 371
  2 neighbor lists, perpetual/occasional/extra = 1 1 0
  (1) pair lj/cut, perpetual
      attributes: half, newton on
      pair build: half/bin/newton
      stencil: half/bin/3d
      bin: standard
  (2) compute centro/atom, occasional
      attributes: full, newton on
      pair build: full/bin
      stencil: full/bin/3d
      bin: standard
Per MPI rank memory allocation (min/avg/max) = 208 | 208 | 208 Mbytes
   Step          Temp     
         0   1            
ERROR on proc 0: Bond atoms 4 5 missing on proc 0 at step 3 (src/src/ntopo_bond_all.cpp:59)
Last command: run		100000
