read_data	InitialFile.txt
Reading data file ...
  orthogonal box = (0 0 0) to (158.5 158.5 158.5)
  1 by 1 by 1 MPI processor grid
WARNING: Atom style in data file atomic differs from currently defined atom style molecular (src/src/read_data.cpp:621)
  reading atoms ...
  100 atoms
  scanning bonds ...
  1 = max bonds/atom
  scanning angles ...
  1 = max angles/atom
  scanning dihedrals ...
  1 = max dihedrals/atom
  reading bonds ...
  99 bonds
  reading angles ...
  98 angles
  reading dihedrals ...
  97 dihedrals
Finding 1-2 1-3 1-4 neighbors ...
  special bond factors lj:    0        0        0       
  special bond factors coul:  0        0        0       
     2 = max # of 1-2 neighbors
     2 = max # of 1-3 neighbors
     4 = max # of 1-4 neighbors
     6 = max # of special neighbors
  special bonds CPU = 0.014 seconds
  read_data CPU = 0.036 seconds

# Dreiding potential information
neighbor	0.4 bin
neigh_modify	every 10 one 10000

bond_style      harmonic
bond_coeff	1 350 1.53
bond_coeff	2 700 1.53

angle_style     harmonic
angle_coeff	1 60 109.5
angle_coeff	2 120 109.5

dihedral_style	multi/harmonic
dihedral_coeff	1 1.73 -4.49 0.776 6.99 0.0
dihedral_coeff	2 1.73 -4.49 0.776 6.99 0.0

pair_style	lj/cut 10.5


pair_coeff	* * 1.0 1.0 10.5
pair_coeff	3 3 2.0 2.0 10.5

compute csym all centro/atom fcc
compute peratom all pe/atom



#####################################################
# Equilibration (Langevin dynamics at 300 K)

velocity 	all create 300.0 1231
fix		1 all nve/limit 0.05
fix		2 all langevin 300.0 300.0 10.0 904297
thermo_style	custom step temp
thermo          10000
timestep	1
run		100000
Generated 0 of 3 mixed pair_coeff terms from geometric mixing rule
Neighbor list info ...
  update: every = 10 steps, delay = 0 steps, check = yes
  max neighbors/atom: 10000, page size: 100000
  master list distance cutoff = 10.9
  ghost atom cutoff = 10.9
  binsize = 5.45, bins = 30 30 30
  2 neighbor lists, perpetual/occasional/extra = 1 1 0
  (1) pair lj/cut, perpetual
      attributes: half, newton on
      pair build: half/bin/newton
      stencil: half/bin/3d
      bin: standard
  (2) compute centro/atom, occasional
      attributes: full, newton on
      pair build: full/bin
      stencil: full/bin/3d
      bin: standard
Per MPI rank memory allocation (min/avg/max) = 8.15 | 8.15 | 8.15 Mbytes
   Step          Temp     
         0   300          
     10000   290.80665    
     20000   269.97327    
     30000   285.31297    
     40000   317.97625    
     50000   331.32515    
     60000   294.7216     
     70000   360.09699    
     80000   293.39662    
     90000   281.9562     
    100000   304.22587    
Loop time of 3.51925 on 1 procs for 100000 steps with 100 atoms

Performance: 2455.066 ns/day, 0.010 hours/ns, 28415.113 timesteps/s, 2.842 Matom-step/s
97.6% CPU use with 1 MPI tasks x no OpenMP threads

MPI task timing breakdown:
Section |  min time  |  avg time  |  max time  |%varavg| %total
---------------------------------------------------------------
Pair    | 0.82501    | 0.82501    | 0.82501    |   0.0 | 23.44
Bond    | 1.8943     | 1.8943     | 1.8943     |   0.0 | 53.83
Neigh   | 0.27784    | 0.27784    | 0.27784    |   0.0 |  7.89
Comm    | 0.024018   | 0.024018   | 0.024018   |   0.0 |  0.68
Output  | 0.00027023 | 0.00027023 | 0.00027023 |   0.0 |  0.01
Modify  | 0.45135    | 0.45135    | 0.45135    |   0.0 | 12.83
Other   |            | 0.0465     |            |       |  1.32

Nlocal:            100 ave         100 max         100 min
Histogram: 1 0 0 0 0 0 0 0 0 0
Nghost:              0 ave           0 max           0 min
Histogram: 1 0 0 0 0 0 0 0 0 0
Neighs:            494 ave         494 max         494 min
Histogram: 1 0 0 0 0 0 0 0 0 0
FullNghs:            0 ave           0 max           0 min
Histogram: 1 0 0 0 0 0 0 0 0 0

Total # of neighbors = 494
Ave neighs/atom = 4.94
Ave special neighs/atom = 5.88
Neighbor list builds = 3892
Dangerous builds = 51
unfix 1
unfix 2
write_restart 	restart.${simname}.dreiding1
write_restart 	restart.InitialFile.dreiding1
System init for write_restart ...
Generated 0 of 3 mixed pair_coeff terms from geometric mixing rule


#####################################################
# Define Settings
compute eng all pe/atom
compute eatoms all reduce sum c_eng

#####################################################
# Minimization

dump mydmp all atom 100 dump.lammpstrj

reset_timestep 0
fix 1 all nvt temp 300.0 300.0 100.0
thermo 20
thermo_style custom step pe lx ly lz press pxx pyy pzz c_eatoms
min_style cg
minimize 1e-25 1e-25 500000 1000000
Switching to 'neigh_modify every 1 delay 0 check yes' setting during minimization
Generated 0 of 3 mixed pair_coeff terms from geometric mixing rule
Per MPI rank memory allocation (min/avg/max) = 9.275 | 9.275 | 9.275 Mbytes
   Step         PotEng           Lx             Ly             Lz           Press           Pxx            Pyy            Pzz          c_eatoms   
         0   87.470589      158.5          158.5          158.5         -2.6326008     -2.2998223     -2.9757459     -2.6222342      87.470589    
        20   11.101917      158.5          158.5          158.5          1.5948428      1.3900456      1.7688407      1.6256421      11.101917    
        40   7.5119087      158.5          158.5          158.5          1.6022836      1.6127063      1.6301127      1.5640318      7.5119087    
        60   6.0403854      158.5          158.5          158.5          1.5949161      1.6783961      1.5875112      1.5188411      6.0403854    
        80   5.3215153      158.5          158.5          158.5          1.5855421      1.5048214      1.694935       1.5568698      5.3215153    
       100   4.8347375      158.5          158.5          158.5          1.5369493      1.5021716      1.631443       1.4772332      4.8347375    
       120   4.5063251      158.5          158.5          158.5          1.4841513      1.4958593      1.5576663      1.3989283      4.5063251    
       140   4.0523951      158.5          158.5          158.5          1.2908167      1.229085       1.395692       1.247673       4.0523951    
       160   3.7425522      158.5          158.5          158.5          1.0862475      1.0851452      1.1136893      1.0599079      3.7425522    
       180   3.482068       158.5          158.5          158.5          1.1029615      1.055547       1.2213355      1.0320019      3.482068     
       200   3.2921654      158.5          158.5          158.5          1.0967679      1.0530063      1.1764105      1.0608868      3.2921654    
       220   3.1357739      158.5          158.5          158.5          1.2355639      1.1967405      1.3247698      1.1851814      3.1357739    
       240   3.012744       158.5          158.5          158.5          1.2300615      1.2117693      1.2924743      1.185941       3.012744     
       260   2.9392022      158.5          158.5          158.5          1.2360921      1.2696696      1.2675845      1.1710223      2.9392022    
       280   2.8717561      158.5          158.5          158.5          1.1532299      1.180026       1.2033039      1.0763599      2.8717561    
       300   2.8227969      158.5          158.5          158.5          1.097395       1.0824499      1.1735139      1.0362211      2.8227969    
       320   2.800196       158.5          158.5          158.5          1.150469       1.1270986      1.2516046      1.0727039      2.800196     
       340   2.764801       158.5          158.5          158.5          1.1785816      1.1677749      1.2368518      1.1311181      2.764801     
       360   2.7284005      158.5          158.5          158.5          1.1699603      1.1616382      1.2301297      1.1181131      2.7284005    
       380   2.6648022      158.5          158.5          158.5          1.1147518      1.1667832      1.1235074      1.0539647      2.6648022    
       400   2.6038816      158.5          158.5          158.5          1.0822743      1.0806982      1.1393475      1.0267772      2.6038816    
       420   2.54206        158.5          158.5          158.5          1.1125085      1.0904562      1.1872838      1.0597857      2.54206      
       440   2.4808062      158.5          158.5          158.5          1.1493419      1.1194699      1.2301212      1.0984347      2.4808062    
       460   2.4142941      158.5          158.5          158.5          1.1640059      1.136651       1.2614766      1.0938901      2.4142941    
       480   2.3517604      158.5          158.5          158.5          1.0806541      1.0760716      1.1457283      1.0201623      2.3517604    
       500   2.3046449      158.5          158.5          158.5          1.0407437      1.0173239      1.1119532      0.99295386     2.3046449    
       520   2.2689836      158.5          158.5          158.5          1.0104306      0.98846294     1.1010191      0.94180968     2.2689836    
       540   2.2402995      158.5          158.5          158.5          0.97865803     0.9601507      1.0587492      0.91707417     2.2402995    
       560   2.2154494      158.5          158.5          158.5          0.98192728     0.96530935     1.0506849      0.9297876      2.2154494    
       580   2.2042907      158.5          158.5          158.5          1.0064439      0.99094804     1.0834487      0.94493493     2.2042907    
       600   2.1849903      158.5          158.5          158.5          1.0692424      1.0458031      1.1507385      1.0111857      2.1849903    
       620   2.1788045      158.5          158.5          158.5          1.0547896      1.0372549      1.1226585      1.0044554      2.1788045    
       640   2.1722385      158.5          158.5          158.5          1.0256255      1.0089991      1.0935735      0.97430371     2.1722385    
       660   2.1620912      158.5          158.5          158.5          1.0301863      1.0170341      1.1053988      0.96812598     2.1620912    
       680   2.1474785      158.5          158.5          158.5          1.0582886      1.043969       1.1334092      0.99748767     2.1474785    
       700   2.1141775      158.5          158.5          158.5          1.0822375      1.0272007      1.1934095      1.0261024      2.1141775    
       720   2.0794954      158.5          158.5          158.5          1.0928376      1.0741262      1.1800933      1.0242933      2.0794954    
       740   2.0612327      158.5          158.5          158.5          1.0699255      1.060344       1.1380058      1.0114268      2.0612327    
       760   2.0502014      158.5          158.5          158.5          1.0583246      1.0450623      1.1237308      1.0061806      2.0502014    
       780   2.0375864      158.5          158.5          158.5          1.0549021      1.0317756      1.1384294      0.99450128     2.0375864    
       800   2.0165139      158.5          158.5          158.5          1.042103       1.0163903      1.1387353      0.97118336     2.0165139    
       820   2.0017304      158.5          158.5          158.5          1.0544967      1.0319895      1.1312566      1.0002441      2.0017304    
       840   1.9935874      158.5          158.5          158.5          1.0631191      1.0444702      1.1339283      1.0109587      1.9935874    
       860   1.9872068      158.5          158.5          158.5          1.0678341      1.0565321      1.1325167      1.0144536      1.9872068    
       880   1.9824991      158.5          158.5          158.5          1.0479526      1.0312522      1.1159194      0.99668617     1.9824991    
       900   1.9792222      158.5          158.5          158.5          1.031144       1.0192035      1.0958783      0.97835032     1.9792222    
       920   1.9785219      158.5          158.5          158.5          1.0305795      1.0188869      1.0968967      0.97595481     1.9785219    
       940   1.976927       158.5          158.5          158.5          1.0380707      1.0214801      1.1063182      0.98641384     1.976927     
       960   1.9751581      158.5          158.5          158.5          1.0365622      1.0218958      1.1037382      0.98405251     1.9751581    
       980   1.9737576      158.5          158.5          158.5          1.0353233      1.0204056      1.1018427      0.98372143     1.9737576    
      1000   1.9725735      158.5          158.5          158.5          1.03659        1.0266856      1.0996564      0.98342804     1.9725735    
      1020   1.9707381      158.5          158.5          158.5          1.036105       1.0272974      1.0993138      0.98170369     1.9707381    
      1040   1.9666783      158.5          158.5          158.5          1.0417356      1.0388939      1.1008851      0.9854277      1.9666783    
      1060   1.9627493      158.5          158.5          158.5          1.0381327      1.0297278      1.1017266      0.98294376     1.9627493    
      1080   1.96149        158.5          158.5          158.5          1.0373932      1.0294528      1.0994292      0.98329763     1.96149      
      1100   1.9606914      158.5          158.5          158.5          1.0398905      1.0310773      1.1021424      0.98645181     1.9606914    
      1120   1.9591453      158.5          158.5          158.5          1.0428395      1.0321262      1.1058048      0.99058752     1.9591453    
      1140   1.9581037      158.5          158.5          158.5          1.0458119      1.0312384      1.1130299      0.99316731     1.9581037    
      1160   1.957235       158.5          158.5          158.5          1.0419933      1.0323136      1.1046597      0.98900654     1.957235     
      1180   1.9565631      158.5          158.5          158.5          1.0384609      1.0279755      1.1026469      0.98476033     1.9565631    
      1200   1.9561159      158.5          158.5          158.5          1.0359359      1.0238383      1.1020184      0.98195095     1.9561159    
      1220   1.9558519      158.5          158.5          158.5          1.032551       1.0203284      1.0984324      0.97889226     1.9558519    
      1240   1.9549155      158.5          158.5          158.5          1.0337008      1.0207571      1.1004367      0.97990862     1.9549155    
      1260   1.9505795      158.5          158.5          158.5          1.0200547      1.0000277      1.0955257      0.96461078     1.9505795    
      1280   1.9492612      158.5          158.5          158.5          1.0263209      1.0133238      1.09381        0.97182878     1.9492612    
      1300   1.9482683      158.5          158.5          158.5          1.034994       1.024653       1.1008332      0.97949582     1.9482683    
      1320   1.9478138      158.5          158.5          158.5          1.0364401      1.0248109      1.1032109      0.98129842     1.9478138    
      1340   1.9469662      158.5          158.5          158.5          1.0336095      1.0215681      1.0987887      0.98047165     1.9469662    
      1360   1.9456749      158.5          158.5          158.5          1.020142       1.0067417      1.0848188      0.96886554     1.9456749    
      1380   1.9441975      158.5          158.5          158.5          1.0205568      1.00859        1.0837629      0.96931749     1.9441975    
      1400   1.9424616      158.5          158.5          158.5          1.0364979      1.0237426      1.1041285      0.98162258     1.9424616    
      1420   1.9390517      158.5          158.5          158.5          1.0490086      1.0354776      1.115369       0.99617919     1.9390517    
      1440   1.9368196      158.5          158.5          158.5          1.0530781      1.0437654      1.1164505      0.99901838     1.9368196    
      1460   1.9350999      158.5          158.5          158.5          1.0448689      1.0317666      1.1131692      0.98967087     1.9350999    
      1480   1.9333899      158.5          158.5          158.5          1.035442       1.0253537      1.0977068      0.98326541     1.9333899    
      1500   1.932245       158.5          158.5          158.5          1.0304069      1.0185168      1.0950631      0.97764089     1.932245     
      1520   1.931972       158.5          158.5          158.5          1.0306991      1.0189763      1.0951618      0.97795906     1.931972     
      1540   1.9317297      158.5          158.5          158.5          1.0333754      1.0217069      1.0984581      0.97996103     1.9317297    
      1560   1.9316009      158.5          158.5          158.5          1.0340465      1.0215419      1.1001199      0.98047762     1.9316009    
      1580   1.9313599      158.5          158.5          158.5          1.0355583      1.0249879      1.1004713      0.9812159      1.9313599    
      1600   1.9309637      158.5          158.5          158.5          1.0312094      1.0195039      1.0970882      0.97703603     1.9309637    
      1620   1.9306587      158.5          158.5          158.5          1.032654       1.0212379      1.0970369      0.97968725     1.9306587    
      1640   1.9304116      158.5          158.5          158.5          1.0324614      1.0211122      1.0974353      0.9788366      1.9304116    
      1660   1.9300931      158.5          158.5          158.5          1.030113       1.0179355      1.0955431      0.97686047     1.9300931    
      1680   1.9297219      158.5          158.5          158.5          1.03322        1.0212509      1.0984456      0.97996342     1.9297219    
      1700   1.9290179      158.5          158.5          158.5          1.0261571      1.0134114      1.0937991      0.97126081     1.9290179    
      1720   1.9281592      158.5          158.5          158.5          1.0200128      1.0100145      1.0840218      0.96600208     1.9281592    
      1740   1.9272563      158.5          158.5          158.5          1.0250053      1.0171074      1.088158       0.96975037     1.9272563    
      1760   1.9258127      158.5          158.5          158.5          1.0115672      1.0006585      1.0781637      0.95587951     1.9258127    
      1780   1.9247365      158.5          158.5          158.5          1.0083964      0.99664559     1.0741699      0.95437363     1.9247365    
      1800   1.9239431      158.5          158.5          158.5          1.0082378      0.99726485     1.0721712      0.95527741     1.9239431    
      1820   1.9236908      158.5          158.5          158.5          1.0112268      1.0004169      1.0747558      0.95850767     1.9236908    
      1840   1.9234738      158.5          158.5          158.5          1.0150234      1.0035666      1.079839       0.96166453     1.9234738    
      1860   1.9233853      158.5          158.5          158.5          1.0180732      1.0076607      1.0823727      0.96418634     1.9233853    
      1880   1.923121       158.5          158.5          158.5          1.0243961      1.01308        1.0894436      0.97066471     1.923121     
      1900   1.9229454      158.5          158.5          158.5          1.0284822      1.0173723      1.0933135      0.97476074     1.9229454    
      1920   1.9226658      158.5          158.5          158.5          1.0344599      1.0228959      1.0993961      0.98108759     1.9226658    
      1940   1.9225915      158.5          158.5          158.5          1.0353351      1.0232189      1.1004585      0.982328       1.9225915    
      1960   1.9223987      158.5          158.5          158.5          1.0376731      1.028829       1.0992987      0.98489169     1.9223987    
      1980   1.922097       158.5          158.5          158.5          1.0367812      1.0254046      1.1014276      0.98351134     1.922097     
      2000   1.9219704      158.5          158.5          158.5          1.0371389      1.0255735      1.1021815      0.98366176     1.9219704    
      2020   1.9218905      158.5          158.5          158.5          1.0359686      1.0241377      1.1012352      0.98253298     1.9218905    
      2040   1.9217705      158.5          158.5          158.5          1.0348047      1.02352        1.0994407      0.98145336     1.9217705    
      2060   1.9217009      158.5          158.5          158.5          1.0336204      1.0219614      1.0988641      0.98003582     1.9217009    
      2080   1.9215984      158.5          158.5          158.5          1.032579       1.0210531      1.0978948      0.97878912     1.9215984    
      2100   1.9215181      158.5          158.5          158.5          1.031165       1.0195405      1.0961982      0.97775633     1.9215181    
      2120   1.9214885      158.5          158.5          158.5          1.0305348      1.0190457      1.0954468      0.97711176     1.9214885    
      2140   1.9214471      158.5          158.5          158.5          1.0300191      1.0182074      1.0950989      0.97675094     1.9214471    
      2160   1.9213508      158.5          158.5          158.5          1.0307151      1.0199545      1.0944604      0.97773027     1.9213508    
      2180   1.9211374      158.5          158.5          158.5          1.0316043      1.0199919      1.0965324      0.97828869     1.9211374    
      2200   1.9209751      158.5          158.5          158.5          1.0337294      1.0219523      1.0986425      0.98059353     1.9209751    
      2220   1.9206353      158.5          158.5          158.5          1.0377375      1.0270542      1.1011868      0.98497145     1.9206353    
      2240   1.9201799      158.5          158.5          158.5          1.0430652      1.0307456      1.1082199      0.99023002     1.9201799    
      2260   1.9196329      158.5          158.5          158.5          1.0423122      1.032784       1.1053015      0.98885112     1.9196329    
      2280   1.9189473      158.5          158.5          158.5          1.0391488      1.0286027      1.1025003      0.98634343     1.9189473    
      2300   1.9185634      158.5          158.5          158.5          1.0333023      1.0197354      1.0995553      0.98061635     1.9185634    
      2320   1.918179       158.5          158.5          158.5          1.0263365      1.0146582      1.0911871      0.97316418     1.918179     
      2340   1.9179239      158.5          158.5          158.5          1.021269       1.0096338      1.0858008      0.96837243     1.9179239    
      2360   1.9177063      158.5          158.5          158.5          1.0214108      1.0085498      1.0885065      0.96717627     1.9177063    
      2380   1.9175474      158.5          158.5          158.5          1.0219838      1.0104763      1.087938       0.96753702     1.9175474    
      2400   1.9173761      158.5          158.5          158.5          1.0231166      1.0124222      1.0876133      0.96931443     1.9173761    
      2420   1.9172968      158.5          158.5          158.5          1.023857       1.0129661      1.0878292      0.97077553     1.9172968    
      2440   1.917219       158.5          158.5          158.5          1.0254462      1.0140738      1.090828       0.97143663     1.917219     
      2460   1.9171118      158.5          158.5          158.5          1.0286288      1.0170707      1.0932084      0.9756075      1.9171118    
      2480   1.9170654      158.5          158.5          158.5          1.029267       1.017351       1.0943823      0.97606758     1.9170654    
      2500   1.9170185      158.5          158.5          158.5          1.0299126      1.0189073      1.0944612      0.97636926     1.9170185    
      2520   1.9169501      158.5          158.5          158.5          1.0298879      1.0183205      1.094921       0.97642236     1.9169501    
      2540   1.9167188      158.5          158.5          158.5          1.0270644      1.0162168      1.0915405      0.97343603     1.9167188    
      2560   1.9165664      158.5          158.5          158.5          1.0271014      1.0155534      1.0924455      0.9733053      1.9165664    
      2580   1.9163836      158.5          158.5          158.5          1.0290802      1.0169118      1.0947628      0.97556611     1.9163836    
      2600   1.9162535      158.5          158.5          158.5          1.031401       1.0199155      1.0961765      0.97811114     1.9162535    
      2620   1.9162053      158.5          158.5          158.5          1.0319118      1.0203333      1.0967392      0.9786629      1.9162053    
      2640   1.9161691      158.5          158.5          158.5          1.032059       1.0211469      1.0962381      0.97879192     1.9161691    
      2660   1.9161485      158.5          158.5          158.5          1.0326322      1.0215394      1.0970522      0.97930504     1.9161485    
      2680   1.9161223      158.5          158.5          158.5          1.0324198      1.0209337      1.0974194      0.97890624     1.9161223    
      2700   1.9160674      158.5          158.5          158.5          1.0305629      1.0190903      1.0954744      0.97712414     1.9160674    
      2720   1.9160487      158.5          158.5          158.5          1.0306066      1.0192344      1.0954061      0.97717935     1.9160487    
      2740   1.9160358      158.5          158.5          158.5          1.0310714      1.0196772      1.0957315      0.97780542     1.9160358    
      2760   1.9160114      158.5          158.5          158.5          1.0309984      1.020194       1.0948316      0.97796963     1.9160114    
      2780   1.9159839      158.5          158.5          158.5          1.0311784      1.0196284      1.0963442      0.9775626      1.9159839    
      2800   1.9159514      158.5          158.5          158.5          1.031405       1.019992       1.0961018      0.97812104     1.9159514    
      2820   1.9159133      158.5          158.5          158.5          1.030551       1.0191926      1.0949739      0.97748654     1.9159133    
      2840   1.9158621      158.5          158.5          158.5          1.0305192      1.0184882      1.0957382      0.9773313      1.9158621    
      2860   1.9158201      158.5          158.5          158.5          1.0302695      1.0187072      1.0947503      0.97735095     1.9158201    
      2880   1.9157307      158.5          158.5          158.5          1.0320715      1.02126        1.0962837      0.97867064     1.9157307    
      2900   1.9155921      158.5          158.5          158.5          1.0351686      1.0237022      1.1006838      0.98111976     1.9155921    
      2920   1.9153255      158.5          158.5          158.5          1.0351746      1.0202683      1.1045935      0.98066189     1.9153255    
      2940   1.9148903      158.5          158.5          158.5          1.0339186      1.0271215      1.0940902      0.98054403     1.9148903    
      2960   1.9144591      158.5          158.5          158.5          1.0289962      1.0160021      1.0970602      0.97392623     1.9144591    
      2980   1.9142267      158.5          158.5          158.5          1.025677       1.0155117      1.0892171      0.97230232     1.9142267    
      3000   1.9140819      158.5          158.5          158.5          1.0246062      1.0127498      1.0902874      0.97078129     1.9140819    
      3020   1.9140154      158.5          158.5          158.5          1.0247108      1.0131136      1.0900571      0.97096164     1.9140154    
      3040   1.9139618      158.5          158.5          158.5          1.0251881      1.0128249      1.0911252      0.97161422     1.9139618    
      3060   1.9138418      158.5          158.5          158.5          1.0281275      1.0178058      1.0923176      0.97425907     1.9138418    
      3080   1.9138058      158.5          158.5          158.5          1.0281629      1.01714        1.092611       0.97473785     1.9138058    
      3100   1.9137212      158.5          158.5          158.5          1.0301721      1.0187293      1.0946308      0.9771561      1.9137212    
      3120   1.9136328      158.5          158.5          158.5          1.0302431      1.018612       1.0951435      0.97697385     1.9136328    
      3140   1.9135673      158.5          158.5          158.5          1.0317181      1.0195331      1.097704       0.97791728     1.9135673    
      3160   1.9134901      158.5          158.5          158.5          1.0317431      1.0219736      1.0940025      0.97925314     1.9134901    
      3180   1.9134515      158.5          158.5          158.5          1.032233       1.0204238      1.0977207      0.97855447     1.9134515    
      3200   1.9134227      158.5          158.5          158.5          1.0320597      1.0217015      1.0955228      0.97895468     1.9134227    
      3220   1.9133828      158.5          158.5          158.5          1.030676       1.0180667      1.0966632      0.97729817     1.9133828    
      3240   1.9133129      158.5          158.5          158.5          1.0294535      1.0185718      1.0939557      0.97583306     1.9133129    
      3260   1.9132768      158.5          158.5          158.5          1.0290471      1.0174184      1.0942945      0.97542832     1.9132768    
      3280   1.9132474      158.5          158.5          158.5          1.0293714      1.0175084      1.0948997      0.97570613     1.9132474    
      3300   1.9132099      158.5          158.5          158.5          1.030744       1.0192954      1.0954991      0.97743757     1.9132099    
      3320   1.9131967      158.5          158.5          158.5          1.0309996      1.0195445      1.0958968      0.97755764     1.9131967    
      3340   1.9131859      158.5          158.5          158.5          1.0302443      1.0190459      1.0949198      0.97676716     1.9131859    
      3360   1.91317        158.5          158.5          158.5          1.0286632      1.0180277      1.0923838      0.97557806     1.91317      
      3380   1.913118       158.5          158.5          158.5          1.0274795      1.0162624      1.091415       0.97476121     1.913118     
      3400   1.9130587      158.5          158.5          158.5          1.0290391      1.0176173      1.0940001      0.97549988     1.9130587    
      3420   1.9129968      158.5          158.5          158.5          1.0326271      1.0214013      1.0972773      0.97920274     1.9129968    
      3440   1.9129756      158.5          158.5          158.5          1.0321867      1.0206178      1.0973171      0.97862529     1.9129756    
      3460   1.9129463      158.5          158.5          158.5          1.0313465      1.0197449      1.0961445      0.97815019     1.9129463    
      3480   1.9129273      158.5          158.5          158.5          1.0311338      1.0197757      1.0959417      0.97768391     1.9129273    
      3500   1.9128932      158.5          158.5          158.5          1.0311851      1.0195251      1.0962401      0.97779002     1.9128932    
      3520   1.9128441      158.5          158.5          158.5          1.0313959      1.0195681      1.0973179      0.97730169     1.9128441    
      3540   1.912803       158.5          158.5          158.5          1.028676       1.0176156      1.093355       0.97505734     1.912803     
      3560   1.912769       158.5          158.5          158.5          1.0278309      1.0165462      1.0927121      0.97423429     1.912769     
      3580   1.9127361      158.5          158.5          158.5          1.0273087      1.0155639      1.0921594      0.97420302     1.9127361    
      3600   1.9126928      158.5          158.5          158.5          1.0290565      1.017754       1.0936291      0.97578619     1.9126928    
      3620   1.9126766      158.5          158.5          158.5          1.0289463      1.0176688      1.0935578      0.97561234     1.9126766    
      3640   1.9126717      158.5          158.5          158.5          1.0293856      1.0181709      1.093923       0.97606285     1.9126717    
      3660   1.9126654      158.5          158.5          158.5          1.0309108      1.0190836      1.0962191      0.97742956     1.9126654    
      3680   1.912657       158.5          158.5          158.5          1.0326283      1.021218       1.0975357      0.97913107     1.912657     
      3700   1.9126398      158.5          158.5          158.5          1.0341944      1.022255       1.0997113      0.98061688     1.9126398    
      3720   1.9126249      158.5          158.5          158.5          1.0341693      1.0229213      1.0988105      0.9807762      1.9126249    
      3740   1.912605       158.5          158.5          158.5          1.0340223      1.0223436      1.0989252      0.9807982      1.912605     
      3760   1.9125654      158.5          158.5          158.5          1.0347443      1.0222686      1.1000454      0.98191893     1.9125654    
      3780   1.9124732      158.5          158.5          158.5          1.0353922      1.0232084      1.1008615      0.98210666     1.9124732    
      3800   1.9123824      158.5          158.5          158.5          1.036614       1.0235833      1.1036339      0.98262485     1.9123824    
      3820   1.912216       158.5          158.5          158.5          1.0333793      1.020188       1.1004812      0.97946878     1.912216     
      3840   1.9121155      158.5          158.5          158.5          1.032154       1.0203178      1.0975018      0.97864233     1.9121155    
      3860   1.9120243      158.5          158.5          158.5          1.0321103      1.0203211      1.0975768      0.97843317     1.9120243    
      3880   1.911958       158.5          158.5          158.5          1.0303969      1.0190135      1.09527        0.97690717     1.911958     
      3900   1.9118962      158.5          158.5          158.5          1.0287856      1.0173886      1.0937396      0.97522861     1.9118962    
      3920   1.9118611      158.5          158.5          158.5          1.0291279      1.0176979      1.0938786      0.97580737     1.9118611    
      3940   1.9118342      158.5          158.5          158.5          1.0291688      1.0178156      1.0936865      0.97600437     1.9118342    
      3960   1.9118017      158.5          158.5          158.5          1.0300982      1.0186956      1.0949373      0.9766619      1.9118017    
      3980   1.9117695      158.5          158.5          158.5          1.0302668      1.0186119      1.0955426      0.976646       1.9117695    
      4000   1.9117371      158.5          158.5          158.5          1.0306414      1.0191832      1.0954197      0.97732111     1.9117371    
      4020   1.9117222      158.5          158.5          158.5          1.0302244      1.0185973      1.0950388      0.97703709     1.9117222    
      4040   1.911702       158.5          158.5          158.5          1.0310329      1.019085       1.0965992      0.97741455     1.911702     
      4060   1.9116769      158.5          158.5          158.5          1.0308088      1.0190275      1.0962797      0.97711931     1.9116769    
      4080   1.9116534      158.5          158.5          158.5          1.0306315      1.0195906      1.0949216      0.97738218     1.9116534    
      4100   1.9116168      158.5          158.5          158.5          1.0299558      1.0183655      1.0949526      0.97654942     1.9116168    
      4120   1.911591       158.5          158.5          158.5          1.030353       1.0192711      1.0949379      0.97684991     1.911591     
      4140   1.9115811      158.5          158.5          158.5          1.0303778      1.0192142      1.0947248      0.97719443     1.9115811    
      4160   1.9115713      158.5          158.5          158.5          1.0300924      1.0188154      1.0947598      0.97670211     1.9115713    
      4180   1.9115646      158.5          158.5          158.5          1.0303947      1.0192389      1.0949422      0.97700306     1.9115646    
      4200   1.9115533      158.5          158.5          158.5          1.0310342      1.0195655      1.0958983      0.97763871     1.9115533    
      4220   1.91155        158.5          158.5          158.5          1.0308565      1.0193324      1.095789       0.97744809     1.91155      
      4240   1.9115463      158.5          158.5          158.5          1.0304738      1.0190792      1.095178       0.97716432     1.9115463    
      4260   1.9115411      158.5          158.5          158.5          1.030498       1.0191901      1.0951887      0.97711518     1.9115411    
      4280   1.911534       158.5          158.5          158.5          1.0307675      1.0196604      1.0952069      0.97743506     1.911534     
      4300   1.9115157      158.5          158.5          158.5          1.0308127      1.0194264      1.0956118      0.97739998     1.9115157    
      4320   1.9114878      158.5          158.5          158.5          1.0303761      1.0189383      1.0952324      0.97695754     1.9114878    
      4340   1.9114572      158.5          158.5          158.5          1.0307307      1.0197446      1.095087       0.97736045     1.9114572    
      4360   1.911432       158.5          158.5          158.5          1.0307256      1.0190979      1.0954142      0.97766481     1.911432     
      4380   1.9114137      158.5          158.5          158.5          1.0309041      1.0193764      1.0959733      0.97736251     1.9114137    
      4400   1.9114065      158.5          158.5          158.5          1.0309399      1.0196252      1.0955266      0.97766793     1.9114065    
      4420   1.9113914      158.5          158.5          158.5          1.0309791      1.0194269      1.095925       0.97758538     1.9113914    
      4440   1.9113737      158.5          158.5          158.5          1.0307482      1.0192846      1.0955086      0.97745142     1.9113737    
      4460   1.9113626      158.5          158.5          158.5          1.0314031      1.0197097      1.096492       0.97800745     1.9113626    
      4480   1.9113402      158.5          158.5          158.5          1.0323081      1.0200977      1.0981214      0.97870519     1.9113402    
      4500   1.9112943      158.5          158.5          158.5          1.0325761      1.0211088      1.0978378      0.97878167     1.9112943    
      4520   1.9112747      158.5          158.5          158.5          1.0319587      1.0204605      1.0969705      0.97844507     1.9112747    
      4540   1.9112618      158.5          158.5          158.5          1.0311788      1.0197049      1.0959989      0.97783267     1.9112618    
      4560   1.9112531      158.5          158.5          158.5          1.0307645      1.0193688      1.0955034      0.97742122     1.9112531    
      4580   1.9112449      158.5          158.5          158.5          1.0312968      1.019849       1.0961043      0.97793728     1.9112449    
      4600   1.9112317      158.5          158.5          158.5          1.030827       1.0192763      1.0957098      0.97749489     1.9112317    
      4620   1.9112153      158.5          158.5          158.5          1.0303546      1.0187748      1.0953065      0.97698243     1.9112153    
      4640   1.9111965      158.5          158.5          158.5          1.029656       1.0181267      1.0945218      0.97631956     1.9111965    
      4660   1.9111787      158.5          158.5          158.5          1.0299212      1.0185726      1.0948777      0.9763133      1.9111787    
      4680   1.911171       158.5          158.5          158.5          1.0299242      1.0185817      1.0947257      0.97646534     1.911171     
      4700   1.9111616      158.5          158.5          158.5          1.0303443      1.0189482      1.0952961      0.97678858     1.9111616    
      4720   1.9111539      158.5          158.5          158.5          1.0305367      1.019363       1.0950681      0.97717894     1.9111539    
      4740   1.9111469      158.5          158.5          158.5          1.0307749      1.0194235      1.0953649      0.9775363      1.9111469    
      4760   1.9111405      158.5          158.5          158.5          1.0315179      1.0203338      1.0960558      0.97816403     1.9111405    
      4780   1.9111345      158.5          158.5          158.5          1.0313986      1.020027       1.0961372      0.97803145     1.9111345    
      4800   1.9111203      158.5          158.5          158.5          1.0304186      1.0191212      1.0948985      0.97723611     1.9111203    
      4820   1.9111144      158.5          158.5          158.5          1.0308465      1.0193286      1.0957966      0.97741415     1.9111144    
      4840   1.9111113      158.5          158.5          158.5          1.0311956      1.0198296      1.0959586      0.97779869     1.9111113    
      4860   1.9111089      158.5          158.5          158.5          1.0309199      1.0197351      1.095518       0.97750661     1.9111089    
      4880   1.911105       158.5          158.5          158.5          1.0303419      1.0190425      1.0949771      0.97700601     1.911105     
      4900   1.9111         158.5          158.5          158.5          1.0304479      1.0192238      1.0950715      0.97704837     1.9111       
      4920   1.9110929      158.5          158.5          158.5          1.0300757      1.0188013      1.0948399      0.97658591     1.9110929    
      4940   1.9110855      158.5          158.5          158.5          1.0297265      1.0182932      1.0944485      0.97643764     1.9110855    
      4960   1.9110583      158.5          158.5          158.5          1.0301427      1.0185907      1.0951531      0.97668434     1.9110583    
      4980   1.9110107      158.5          158.5          158.5          1.0305713      1.0188182      1.0954541      0.97744165     1.9110107    
      5000   1.9109564      158.5          158.5          158.5          1.0317396      1.0206049      1.0963236      0.97829034     1.9109564    
      5020   1.9109009      158.5          158.5          158.5          1.0328281      1.0213468      1.0981753      0.97896217     1.9109009    
      5040   1.9108406      158.5          158.5          158.5          1.0315682      1.0205663      1.0962258      0.97791236     1.9108406    
      5060   1.910798       158.5          158.5          158.5          1.0313591      1.0203717      1.0951486      0.978557       1.910798     
      5080   1.91077        158.5          158.5          158.5          1.0311106      1.0199564      1.0955072      0.97786831     1.91077      
      5100   1.9107124      158.5          158.5          158.5          1.0316494      1.0200609      1.0965503      0.978337       1.9107124    
      5120   1.9106977      158.5          158.5          158.5          1.0314827      1.0202262      1.0964036      0.9778184      1.9106977    
      5140   1.9106832      158.5          158.5          158.5          1.0305584      1.0195443      1.0947027      0.97742816     1.9106832    
      5160   1.9106678      158.5          158.5          158.5          1.0309746      1.0195467      1.0957653      0.97761184     1.9106678    
      5180   1.9106554      158.5          158.5          158.5          1.0320072      1.020956       1.0965555      0.9785102      1.9106554    
      5200   1.9106271      158.5          158.5          158.5          1.032342       1.0208507      1.0974236      0.97875172     1.9106271    
      5220   1.9105966      158.5          158.5          158.5          1.0314467      1.0202828      1.0960536      0.97800373     1.9105966    
      5240   1.9105704      158.5          158.5          158.5          1.0309248      1.0198408      1.0954879      0.97744563     1.9105704    
      5260   1.910562       158.5          158.5          158.5          1.0312667      1.0199818      1.0959622      0.97785589     1.910562     
      5280   1.9105544      158.5          158.5          158.5          1.0312077      1.0198501      1.0959911      0.97778182     1.9105544    
      5300   1.9105407      158.5          158.5          158.5          1.0317588      1.0204988      1.0962995      0.97847821     1.9105407    
      5320   1.9105239      158.5          158.5          158.5          1.0311577      1.0199713      1.0955225      0.97797922     1.9105239    
      5340   1.9105153      158.5          158.5          158.5          1.0312534      1.0200898      1.0955287      0.97814155     1.9105153    
      5360   1.910509       158.5          158.5          158.5          1.0313886      1.0202658      1.0957331      0.97816677     1.910509     
      5380   1.9105038      158.5          158.5          158.5          1.0309381      1.0197251      1.0954545      0.97763483     1.9105038    
      5400   1.9105002      158.5          158.5          158.5          1.0307442      1.0193358      1.0955815      0.97731536     1.9105002    
      5420   1.9104986      158.5          158.5          158.5          1.0306766      1.019245       1.0955498      0.97723485     1.9104986    
      5440   1.910497       158.5          158.5          158.5          1.0308691      1.01955        1.0955647      0.97749253     1.910497     
      5460   1.910495       158.5          158.5          158.5          1.0308798      1.0195912      1.0954463      0.97760192     1.910495     
      5480   1.9104914      158.5          158.5          158.5          1.0306761      1.0194696      1.0951843      0.97737444     1.9104914    
      5500   1.9104848      158.5          158.5          158.5          1.0307796      1.0194658      1.0953537      0.97751923     1.9104848    
      5520   1.9104776      158.5          158.5          158.5          1.0304377      1.019161       1.0952416      0.97691044     1.9104776    
      5540   1.9104678      158.5          158.5          158.5          1.0303423      1.019188       1.0952705      0.97656828     1.9104678    
      5560   1.9104348      158.5          158.5          158.5          1.0293032      1.0182772      1.0938101      0.97582222     1.9104348    
      5580   1.9103985      158.5          158.5          158.5          1.0313771      1.0203843      1.095405       0.97834206     1.9103985    
      5600   1.9103654      158.5          158.5          158.5          1.0326986      1.0217924      1.0971896      0.97911374     1.9103654    
      5620   1.910336       158.5          158.5          158.5          1.0332448      1.0220865      1.0976483      0.97999973     1.910336     
      5640   1.9103168      158.5          158.5          158.5          1.0321795      1.0209488      1.0969634      0.97862623     1.9103168    
      5660   1.9103046      158.5          158.5          158.5          1.0312881      1.0201511      1.0956515      0.97806185     1.9103046    
      5680   1.9102882      158.5          158.5          158.5          1.0315582      1.0203947      1.0959012      0.97837868     1.9102882    
      5700   1.9102695      158.5          158.5          158.5          1.0312979      1.0202643      1.09564        0.97798939     1.9102695    
      5720   1.9102521      158.5          158.5          158.5          1.0306686      1.019179       1.095564       0.9772627      1.9102521    
      5740   1.9102399      158.5          158.5          158.5          1.0301089      1.0187818      1.0947573      0.97678763     1.9102399    
      5760   1.9102327      158.5          158.5          158.5          1.0305127      1.0191222      1.0952159      0.97719988     1.9102327    
      5780   1.9102252      158.5          158.5          158.5          1.0309185      1.0194601      1.0960142      0.97728121     1.9102252    
      5800   1.9102179      158.5          158.5          158.5          1.0301293      1.0188173      1.094752       0.97681848     1.9102179    
      5820   1.9102113      158.5          158.5          158.5          1.029705       1.0184609      1.0943905      0.97626367     1.9102113    
      5840   1.9102057      158.5          158.5          158.5          1.0301611      1.0187794      1.0950373      0.97666656     1.9102057    
      5860   1.9101993      158.5          158.5          158.5          1.0306539      1.0196547      1.0950195      0.97728734     1.9101993    
      5880   1.9101904      158.5          158.5          158.5          1.030916       1.0197466      1.0954976      0.97750375     1.9101904    
      5900   1.9101806      158.5          158.5          158.5          1.0303982      1.0193474      1.0947819      0.97706513     1.9101806    
      5920   1.9101761      158.5          158.5          158.5          1.0306691      1.0193819      1.0952247      0.97740064     1.9101761    
      5940   1.9101726      158.5          158.5          158.5          1.030833       1.0197532      1.0951879      0.97755777     1.9101726    
      5960   1.9101693      158.5          158.5          158.5          1.0310248      1.0197643      1.0956807      0.97762934     1.9101693    
      5980   1.9101663      158.5          158.5          158.5          1.030437       1.0190798      1.0951539      0.97707723     1.9101663    
      6000   1.9101637      158.5          158.5          158.5          1.0301589      1.0187881      1.0949388      0.97674973     1.9101637    
      6020   1.9101613      158.5          158.5          158.5          1.0305835      1.0192393      1.0953888      0.97712246     1.9101613    
      6040   1.9101595      158.5          158.5          158.5          1.0307165      1.0193109      1.0956428      0.97719567     1.9101595    
      6060   1.910158       158.5          158.5          158.5          1.0305034      1.0191349      1.0953698      0.97700536     1.910158     
      6080   1.9101561      158.5          158.5          158.5          1.0303441      1.01887        1.0951921      0.97697024     1.9101561    
      6100   1.910148       158.5          158.5          158.5          1.0306215      1.0193312      1.095371       0.9771623      1.910148     
      6120   1.9101408      158.5          158.5          158.5          1.030965       1.0196055      1.0957638      0.97752583     1.9101408    
      6140   1.9101362      158.5          158.5          158.5          1.0306652      1.0193419      1.0954027      0.97725087     1.9101362    
      6160   1.9101339      158.5          158.5          158.5          1.0305269      1.0190948      1.095418       0.97706811     1.9101339    
      6180   1.9101306      158.5          158.5          158.5          1.0303156      1.0189696      1.0950158      0.97696134     1.9101306    
      6200   1.9101261      158.5          158.5          158.5          1.0304825      1.0191471      1.0951753      0.97712521     1.9101261    
      6220   1.910118       158.5          158.5          158.5          1.030886       1.0195456      1.0958418      0.97727052     1.910118     
      6240   1.9101106      158.5          158.5          158.5          1.0304755      1.0189872      1.0954355      0.9770039      1.9101106    
      6260   1.9101033      158.5          158.5          158.5          1.0302339      1.0190497      1.094792       0.97686001     1.9101033    
      6280   1.9100912      158.5          158.5          158.5          1.0296647      1.0179375      1.0951021      0.97595461     1.9100912    
      6300   1.9100776      158.5          158.5          158.5          1.0302344      1.0190432      1.0948787      0.97678141     1.9100776    
      6320   1.9100708      158.5          158.5          158.5          1.030611       1.0191965      1.0956948      0.97694161     1.9100708    
      6340   1.9100678      158.5          158.5          158.5          1.0307324      1.0193615      1.0955225      0.97731318     1.9100678    
      6360   1.9100661      158.5          158.5          158.5          1.0307111      1.0194082      1.0954266      0.97729842     1.9100661    
      6380   1.9100652      158.5          158.5          158.5          1.0308267      1.0195185      1.0955175      0.97744422     1.9100652    
      6400   1.910064       158.5          158.5          158.5          1.0309589      1.0196486      1.0957061      0.97752198     1.910064     
      6420   1.9100602      158.5          158.5          158.5          1.0306693      1.0193692      1.0955585      0.97708023     1.9100602    
      6440   1.9100422      158.5          158.5          158.5          1.0306124      1.0193274      1.0954688      0.97704088     1.9100422    
      6460   1.9100152      158.5          158.5          158.5          1.0308357      1.019876       1.0950677      0.97756333     1.9100152    
      6480   1.9099914      158.5          158.5          158.5          1.0319099      1.0205029      1.0968572      0.97836948     1.9099914    
      6500   1.9099757      158.5          158.5          158.5          1.0324693      1.0212067      1.097148       0.97905307     1.9099757    
      6520   1.9099683      158.5          158.5          158.5          1.0322799      1.020888       1.097156       0.97879579     1.9099683    
      6540   1.9099596      158.5          158.5          158.5          1.0313299      1.0199216      1.096269       0.97779927     1.9099596    
      6560   1.9099476      158.5          158.5          158.5          1.029862       1.0186756      1.094654       0.97625655     1.9099476    
      6580   1.9099331      158.5          158.5          158.5          1.0297472      1.0184903      1.0943474      0.97640389     1.9099331    
      6600   1.9099236      158.5          158.5          158.5          1.0297773      1.0185216      1.0944816      0.97632859     1.9099236    
      6620   1.9099195      158.5          158.5          158.5          1.0295333      1.0181016      1.0944973      0.97600094     1.9099195    
      6640   1.9099115      158.5          158.5          158.5          1.0295528      1.0180502      1.0943599      0.97624825     1.9099115    
      6660   1.9099018      158.5          158.5          158.5          1.0300936      1.0185387      1.0950269      0.97671499     1.9099018    
      6680   1.909895       158.5          158.5          158.5          1.0310565      1.0196444      1.095878       0.97764729     1.909895     
      6700   1.9098856      158.5          158.5          158.5          1.0314592      1.0199684      1.0963547      0.97805449     1.9098856    
      6720   1.9098717      158.5          158.5          158.5          1.0316203      1.0206569      1.0958601      0.97834398     1.9098717    
      6740   1.9098632      158.5          158.5          158.5          1.0312266      1.0200052      1.0957013      0.97797318     1.9098632    
      6760   1.9098579      158.5          158.5          158.5          1.0314511      1.0199917      1.0963855      0.97797612     1.9098579    
      6780   1.9098546      158.5          158.5          158.5          1.0310768      1.0196542      1.0959211      0.97765508     1.9098546    
      6800   1.9098502      158.5          158.5          158.5          1.0308583      1.0193515      1.0958378      0.9773857      1.9098502    
      6820   1.9098455      158.5          158.5          158.5          1.0302334      1.0188234      1.095091       0.97678587     1.9098455    
      6840   1.9098403      158.5          158.5          158.5          1.0299851      1.0185735      1.0947665      0.9766152      1.9098403    
      6860   1.9098313      158.5          158.5          158.5          1.0298611      1.0187234      1.0945223      0.97633742     1.9098313    
      6880   1.9098247      158.5          158.5          158.5          1.0294944      1.0180206      1.094441       0.97602151     1.9098247    
      6900   1.9098181      158.5          158.5          158.5          1.0292026      1.0177632      1.0940964      0.97574806     1.9098181    
      6920   1.9098151      158.5          158.5          158.5          1.0291308      1.0179447      1.0937225      0.97572531     1.9098151    
      6940   1.9098124      158.5          158.5          158.5          1.0295577      1.0181567      1.0944676      0.97604878     1.9098124    
      6960   1.9098108      158.5          158.5          158.5          1.0296387      1.018322       1.0943803      0.97621389     1.9098108    
      6980   1.9098086      158.5          158.5          158.5          1.0304052      1.0191059      1.0951022      0.97700751     1.9098086    
      7000   1.9098071      158.5          158.5          158.5          1.0308264      1.0194442      1.0956108      0.97742432     1.9098071    
      7020   1.9098056      158.5          158.5          158.5          1.0313965      1.020076       1.0961614      0.97795218     1.9098056    
      7040   1.909804       158.5          158.5          158.5          1.0314079      1.0201235      1.0960425      0.97805756     1.909804     
      7060   1.9098         158.5          158.5          158.5          1.0312837      1.0200352      1.0958321      0.97798372     1.9098       
      7080   1.9097901      158.5          158.5          158.5          1.031388       1.0202409      1.0957322      0.97819088     1.9097901    
      7100   1.9097831      158.5          158.5          158.5          1.0319203      1.0208425      1.0962875      0.97863107     1.9097831    
      7120   1.9097732      158.5          158.5          158.5          1.0325812      1.0214066      1.0974045      0.9789324      1.9097732    
      7140   1.9097669      158.5          158.5          158.5          1.0320438      1.0206694      1.0968469      0.97861509     1.9097669    
      7160   1.909763       158.5          158.5          158.5          1.0315723      1.0201287      1.0964832      0.97810485     1.909763     
      7180   1.9097591      158.5          158.5          158.5          1.0309922      1.0197398      1.0955357      0.97770104     1.9097591    
      7200   1.9097562      158.5          158.5          158.5          1.0308208      1.0195504      1.0954916      0.97742034     1.9097562    
      7220   1.9097548      158.5          158.5          158.5          1.0307011      1.0193635      1.0954533      0.97728656     1.9097548    
      7240   1.9097534      158.5          158.5          158.5          1.0308745      1.019484       1.0956397      0.97749958     1.9097534    
      7260   1.9097524      158.5          158.5          158.5          1.0309408      1.0196441      1.0957606      0.97741774     1.9097524    
      7280   1.9097514      158.5          158.5          158.5          1.0310506      1.0196301      1.0960148      0.97750683     1.9097514    
      7300   1.9097496      158.5          158.5          158.5          1.0302908      1.0190455      1.094798       0.97702908     1.9097496    
      7320   1.9097453      158.5          158.5          158.5          1.0300879      1.0188118      1.0947857      0.97666614     1.9097453    
      7340   1.9097398      158.5          158.5          158.5          1.0304787      1.0190932      1.0953874      0.97695541     1.9097398    
      7360   1.9097355      158.5          158.5          158.5          1.0309371      1.0197178      1.0956722      0.97742127     1.9097355    
      7380   1.9097306      158.5          158.5          158.5          1.0304266      1.018935       1.0952786      0.97706619     1.9097306    
      7400   1.9097245      158.5          158.5          158.5          1.030186       1.018845       1.0950051      0.97670776     1.9097245    
      7420   1.9097175      158.5          158.5          158.5          1.0301734      1.0188426      1.0950095      0.97666809     1.9097175    
      7440   1.9097117      158.5          158.5          158.5          1.0303366      1.0192513      1.0947922      0.97696622     1.9097117    
      7460   1.9097074      158.5          158.5          158.5          1.0304181      1.0190761      1.0951347      0.97704353     1.9097074    
      7480   1.9097022      158.5          158.5          158.5          1.0301582      1.0189072      1.094614       0.97695349     1.9097022    
      7500   1.9096958      158.5          158.5          158.5          1.03053        1.0192203      1.0950449      0.97732489     1.9096958    
      7520   1.9096928      158.5          158.5          158.5          1.0303132      1.0188947      1.0951741      0.97687068     1.9096928    
      7540   1.9096913      158.5          158.5          158.5          1.0304879      1.0191168      1.0953261      0.97702081     1.9096913    
      7560   1.90969        158.5          158.5          158.5          1.0302758      1.019043       1.0949577      0.97682655     1.90969      
      7580   1.9096878      158.5          158.5          158.5          1.0302302      1.0187259      1.0953107      0.9766541      1.9096878    
      7600   1.9096854      158.5          158.5          158.5          1.030474       1.0189448      1.0954144      0.97706272     1.9096854    
      7620   1.9096822      158.5          158.5          158.5          1.0310862      1.0196718      1.0960145      0.97757239     1.9096822    
      7640   1.9096794      158.5          158.5          158.5          1.0312923      1.0199177      1.0961971      0.97776203     1.9096794    
      7660   1.9096763      158.5          158.5          158.5          1.0308929      1.0193636      1.0960199      0.97729516     1.9096763    
      7680   1.9096721      158.5          158.5          158.5          1.0302957      1.0188777      1.0951517      0.97685769     1.9096721    
      7700   1.9096701      158.5          158.5          158.5          1.0305967      1.0192073      1.0954303      0.97715255     1.9096701    
      7720   1.9096685      158.5          158.5          158.5          1.0310033      1.019539       1.0959534      0.97751756     1.9096685    
      7740   1.9096673      158.5          158.5          158.5          1.0310512      1.0196447      1.0959359      0.97757284     1.9096673    
      7760   1.909666       158.5          158.5          158.5          1.0307526      1.0194216      1.0955006      0.97733558     1.909666     
      7780   1.9096638      158.5          158.5          158.5          1.0304922      1.0190938      1.0952931      0.97708967     1.9096638    
      7800   1.909662       158.5          158.5          158.5          1.0304891      1.0191376      1.0952749      0.97705483     1.909662     
      7820   1.9096612      158.5          158.5          158.5          1.030397       1.0190387      1.0951118      0.97704043     1.9096612    
      7840   1.90966        158.5          158.5          158.5          1.0305895      1.0192519      1.095333       0.97718372     1.90966      
      7860   1.9096591      158.5          158.5          158.5          1.0306772      1.0193017      1.095516       0.97721391     1.9096591    
      7880   1.909658       158.5          158.5          158.5          1.030771       1.0195585      1.0954124      0.97734217     1.909658     
      7900   1.9096566      158.5          158.5          158.5          1.030533       1.0191803      1.0953085      0.97711034     1.9096566    
      7920   1.9096545      158.5          158.5          158.5          1.0308519      1.0195329      1.0955659      0.97745702     1.9096545    
      7940   1.9096518      158.5          158.5          158.5          1.0314099      1.0199744      1.0963544      0.97790092     1.9096518    
      7960   1.9096494      158.5          158.5          158.5          1.0316501      1.0201803      1.0966494      0.97812059     1.9096494    
      7980   1.9096424      158.5          158.5          158.5          1.0311201      1.0195645      1.0962324      0.97756335     1.9096424    
      8000   1.9096372      158.5          158.5          158.5          1.0304433      1.0186756      1.0956839      0.97697045     1.9096372    
      8020   1.9096331      158.5          158.5          158.5          1.0300898      1.0187351      1.0948541      0.97668029     1.9096331    
      8040   1.9096294      158.5          158.5          158.5          1.0305247      1.0192121      1.0952707      0.97709122     1.9096294    
      8060   1.909627       158.5          158.5          158.5          1.030658       1.0194074      1.0953907      0.97717594     1.909627     
      8080   1.9096239      158.5          158.5          158.5          1.0308458      1.0195549      1.0954894      0.97749325     1.9096239    
      8100   1.9096203      158.5          158.5          158.5          1.0308446      1.0193325      1.0958047      0.9773966      1.9096203    
      8120   1.909619       158.5          158.5          158.5          1.0307638      1.0193728      1.0955905      0.97732824     1.909619     
      8140   1.9096177      158.5          158.5          158.5          1.0305358      1.0191328      1.095488       0.97698663     1.9096177    
      8160   1.9096171      158.5          158.5          158.5          1.0302825      1.0189179      1.0950632      0.97686643     1.9096171    
      8180   1.9096162      158.5          158.5          158.5          1.0301702      1.0186896      1.0950871      0.97673385     1.9096162    
      8200   1.9096144      158.5          158.5          158.5          1.0308051      1.0194426      1.0956164      0.97735621     1.9096144    
      8220   1.9096121      158.5          158.5          158.5          1.0313913      1.0200258      1.0962588      0.97788931     1.9096121    
      8240   1.9096087      158.5          158.5          158.5          1.0315923      1.0203242      1.096304       0.9781486      1.9096087    
      8260   1.9096057      158.5          158.5          158.5          1.0316373      1.0202447      1.0964073      0.97825976     1.9096057    
      8280   1.9096003      158.5          158.5          158.5          1.0318456      1.0205693      1.0965986      0.97836891     1.9096003    
      8300   1.9095969      158.5          158.5          158.5          1.0314885      1.0203311      1.0960132      0.97812124     1.9095969    
      8320   1.9095929      158.5          158.5          158.5          1.0308313      1.0194747      1.0956233      0.9773958      1.9095929    
      8340   1.9095896      158.5          158.5          158.5          1.0303375      1.0191067      1.0950581      0.97684784     1.9095896    
      8360   1.9095851      158.5          158.5          158.5          1.0302019      1.0187943      1.095148       0.9766634      1.9095851    
      8380   1.9095778      158.5          158.5          158.5          1.0290124      1.0177817      1.0936585      0.97559697     1.9095778    
      8400   1.9095688      158.5          158.5          158.5          1.0281766      1.0168547      1.0928424      0.97483263     1.9095688    
      8420   1.9095637      158.5          158.5          158.5          1.0290999      1.017574       1.094142       0.97558374     1.9095637    
      8440   1.9095579      158.5          158.5          158.5          1.0301814      1.0188726      1.0950454      0.97662615     1.9095579    
      8460   1.9095538      158.5          158.5          158.5          1.0301991      1.018954       1.0948269      0.97681643     1.9095538    
      8480   1.909551       158.5          158.5          158.5          1.0302683      1.0187467      1.0951954      0.97686279     1.909551     
      8500   1.9095486      158.5          158.5          158.5          1.0305819      1.0193302      1.0952326      0.97718277     1.9095486    
      8520   1.9095458      158.5          158.5          158.5          1.0315396      1.0202646      1.0963084      0.97804574     1.9095458    
      8540   1.9095431      158.5          158.5          158.5          1.0317764      1.0204308      1.0965063      0.97839213     1.9095431    
      8560   1.909541       158.5          158.5          158.5          1.0316594      1.0202266      1.0965083      0.97824323     1.909541     
      8580   1.9095382      158.5          158.5          158.5          1.031433       1.0197658      1.096616       0.97791705     1.9095382    
      8600   1.9095355      158.5          158.5          158.5          1.0313423      1.0199109      1.0962828      0.97783315     1.9095355    
      8620   1.9095337      158.5          158.5          158.5          1.0310717      1.0194568      1.0962706      0.97748774     1.9095337    
      8640   1.9095323      158.5          158.5          158.5          1.0306405      1.0192362      1.095518       0.97716726     1.9095323    
      8660   1.9095316      158.5          158.5          158.5          1.0304942      1.019199       1.0952181      0.97706558     1.9095316    
      8680   1.9095306      158.5          158.5          158.5          1.030552       1.019395       1.0951032      0.97715787     1.9095306    
      8700   1.9095296      158.5          158.5          158.5          1.0308684      1.0195052      1.0957097      0.97739035     1.9095296    
      8720   1.909529       158.5          158.5          158.5          1.0306999      1.0191879      1.0957221      0.97718972     1.909529     
      8740   1.9095284      158.5          158.5          158.5          1.030361       1.0190106      1.0950964      0.97697589     1.9095284    
      8760   1.9095279      158.5          158.5          158.5          1.030339       1.0189905      1.0951083      0.97691823     1.9095279    
      8780   1.9095265      158.5          158.5          158.5          1.0305942      1.0192919      1.0952998      0.97719098     1.9095265    
      8800   1.9095243      158.5          158.5          158.5          1.031214       1.019706       1.0961828      0.97775323     1.9095243    
      8820   1.909519       158.5          158.5          158.5          1.0318914      1.0206024      1.0966254      0.97844652     1.909519     
      8840   1.9095137      158.5          158.5          158.5          1.0325796      1.02135        1.0971039      0.97928491     1.9095137    
      8860   1.9095065      158.5          158.5          158.5          1.0327648      1.0214688      1.0975628      0.97926265     1.9095065    
      8880   1.9094953      158.5          158.5          158.5          1.0321057      1.0207932      1.0968646      0.97865934     1.9094953    
      8900   1.9094837      158.5          158.5          158.5          1.0319991      1.0207241      1.0965593      0.97871373     1.9094837    
      8920   1.9094717      158.5          158.5          158.5          1.03193        1.0207002      1.096619       0.97847081     1.9094717    
      8940   1.9094589      158.5          158.5          158.5          1.0311852      1.0198316      1.0962301      0.97749392     1.9094589    
      8960   1.9094449      158.5          158.5          158.5          1.0289055      1.0179543      1.0932858      0.97547646     1.9094449    
      8980   1.9094363      158.5          158.5          158.5          1.0285941      1.0172762      1.0933246      0.97518142     1.9094363    
      9000   1.9094243      158.5          158.5          158.5          1.0292186      1.0177728      1.0940685      0.97581455     1.9094243    
      9020   1.9094186      158.5          158.5          158.5          1.0294078      1.018107       1.0941228      0.97599362     1.9094186    
      9040   1.909414       158.5          158.5          158.5          1.0296999      1.0181664      1.0947333      0.97619993     1.909414     
      9060   1.9094073      158.5          158.5          158.5          1.030634       1.019218       1.0955854      0.97709868     1.9094073    
      9080   1.9094005      158.5          158.5          158.5          1.0310797      1.0195717      1.0960203      0.97764726     1.9094005    
      9100   1.9093955      158.5          158.5          158.5          1.0318286      1.0207177      1.0963208      0.97844732     1.9093955    
      9120   1.9093912      158.5          158.5          158.5          1.0320149      1.020695       1.0969013      0.97844857     1.9093912    
      9140   1.909387       158.5          158.5          158.5          1.0317723      1.0203276      1.0967473      0.97824187     1.909387     
      9160   1.9093847      158.5          158.5          158.5          1.0316404      1.02032        1.0963408      0.97826036     1.9093847    
      9180   1.9093826      158.5          158.5          158.5          1.0313184      1.0199802      1.0960994      0.97787566     1.9093826    
      9200   1.9093813      158.5          158.5          158.5          1.0313365      1.019993       1.0961218      0.97789459     1.9093813    
      9220   1.9093797      158.5          158.5          158.5          1.0309044      1.0196271      1.0955756      0.97751029     1.9093797    
      9240   1.9093779      158.5          158.5          158.5          1.0302426      1.018854       1.0950309      0.97684296     1.9093779    
      9260   1.909377       158.5          158.5          158.5          1.0299931      1.0185275      1.0948779      0.97657398     1.909377     
      9280   1.9093762      158.5          158.5          158.5          1.030188       1.0188064      1.0950664      0.97669114     1.9093762    
      9300   1.9093751      158.5          158.5          158.5          1.0305309      1.0191948      1.0953334      0.97706445     1.9093751    
      9320   1.9093745      158.5          158.5          158.5          1.0302802      1.018987       1.0949563      0.97689745     1.9093745    
      9340   1.9093741      158.5          158.5          158.5          1.0302126      1.0188267      1.0950309      0.97678025     1.9093741    
      9360   1.9093735      158.5          158.5          158.5          1.0305095      1.0192135      1.0952337      0.97708144     1.9093735    
      9380   1.9093727      158.5          158.5          158.5          1.03097        1.0196498      1.0957634      0.97749671     1.9093727    
      9400   1.9093719      158.5          158.5          158.5          1.0311426      1.0198122      1.0959103      0.97770516     1.9093719    
      9420   1.9093711      158.5          158.5          158.5          1.0312024      1.0199031      1.0958763      0.97782787     1.9093711    
      9440   1.9093699      158.5          158.5          158.5          1.0314989      1.0201897      1.0962523      0.97805466     1.9093699    
      9460   1.9093667      158.5          158.5          158.5          1.0325047      1.0211737      1.0973827      0.97895779     1.9093667    
      9480   1.9093606      158.5          158.5          158.5          1.0322436      1.0208253      1.0971167      0.97878869     1.9093606    
      9500   1.9093552      158.5          158.5          158.5          1.0316543      1.0202683      1.0965076      0.97818705     1.9093552    
      9520   1.9093515      158.5          158.5          158.5          1.0311678      1.0198423      1.0959283      0.97773292     1.9093515    
      9540   1.9093491      158.5          158.5          158.5          1.030913       1.0195282      1.0957546      0.97745628     1.9093491    
      9560   1.9093466      158.5          158.5          158.5          1.0304734      1.0191341      1.0952396      0.97704658     1.9093466    
      9580   1.9093449      158.5          158.5          158.5          1.0301533      1.0187982      1.0948974      0.97676432     1.9093449    
      9600   1.9093423      158.5          158.5          158.5          1.0297465      1.018474       1.0943904      0.97637522     1.9093423    
      9620   1.9093416      158.5          158.5          158.5          1.0299867      1.0186664      1.0947189      0.97657471     1.9093416    
      9640   1.9093408      158.5          158.5          158.5          1.0302247      1.0189053      1.0950098      0.97675895     1.9093408    
      9660   1.9093401      158.5          158.5          158.5          1.0305544      1.0192653      1.0952799      0.9771181      1.9093401    
      9680   1.9093395      158.5          158.5          158.5          1.0306572      1.0193091      1.0954514      0.97721102     1.9093395    
      9700   1.9093388      158.5          158.5          158.5          1.0309036      1.0195594      1.095672       0.97747952     1.9093388    
      9720   1.9093383      158.5          158.5          158.5          1.0309462      1.0196248      1.0957225      0.97749123     1.9093383    
      9740   1.9093371      158.5          158.5          158.5          1.031239       1.0199245      1.0959574      0.97783506     1.9093371    
      9760   1.9093357      158.5          158.5          158.5          1.0310214      1.0197229      1.0957713      0.97756986     1.9093357    
      9780   1.9093333      158.5          158.5          158.5          1.0313882      1.0200788      1.096278       0.97780794     1.9093333    
      9800   1.9093292      158.5          158.5          158.5          1.0315805      1.0203961      1.0962166      0.97812882     1.9093292    
      9820   1.9093214      158.5          158.5          158.5          1.0316526      1.020397       1.0962405      0.97832015     1.9093214    
      9840   1.9093142      158.5          158.5          158.5          1.0310396      1.0197526      1.0957325      0.9776339      1.9093142    
      9860   1.909309       158.5          158.5          158.5          1.0303599      1.0191233      1.0948776      0.9770787      1.909309     
      9880   1.9093066      158.5          158.5          158.5          1.0305483      1.0191277      1.095382       0.9771353      1.9093066    
      9900   1.9093043      158.5          158.5          158.5          1.0310315      1.0196764      1.0958527      0.97756531     1.9093043    
      9920   1.909302       158.5          158.5          158.5          1.0307856      1.0193075      1.0958287      0.97722046     1.909302     
      9940   1.9092992      158.5          158.5          158.5          1.0303014      1.0188695      1.095151       0.97688354     1.9092992    
      9960   1.9092931      158.5          158.5          158.5          1.0304321      1.0187524      1.0956619      0.97688201     1.9092931    
      9980   1.9092855      158.5          158.5          158.5          1.030759       1.0193661      1.0955811      0.97732985     1.9092855    
     10000   1.9092807      158.5          158.5          158.5          1.0306873      1.0193213      1.0954711      0.97726942     1.9092807    
     10020   1.9092774      158.5          158.5          158.5          1.0307844      1.0194615      1.0956384      0.97725335     1.9092774    
     10040   1.909276       158.5          158.5          158.5          1.03095        1.0195748      1.0958249      0.97745024     1.909276     
     10060   1.9092748      158.5          158.5          158.5          1.0309028      1.0194961      1.0957953      0.97741694     1.9092748    
     10080   1.9092734      158.5          158.5          158.5          1.03109        1.0197023      1.0959565      0.97761106     1.9092734    
     10100   1.9092728      158.5          158.5          158.5          1.030891       1.019512       1.0956758      0.97748522     1.9092728    
     10120   1.9092719      158.5          158.5          158.5          1.0307899      1.0194156      1.0956138      0.9773403      1.9092719    
     10140   1.9092712      158.5          158.5          158.5          1.0305392      1.0190817      1.0954318      0.97710407     1.9092712    
     10160   1.9092704      158.5          158.5          158.5          1.0305473      1.0191972      1.0953633      0.97708135     1.9092704    
     10180   1.9092698      158.5          158.5          158.5          1.03041        1.0190764      1.0951661      0.97698764     1.9092698    
[...]
     61480   1.9088465      158.5          158.5          158.5          1.0306478      1.0193096      1.0954315      0.97720231     1.9088465    
     61500   1.9088465      158.5          158.5          158.5          1.0306477      1.0193096      1.0954313      0.97720226     1.9088465    
     61520   1.9088465      158.5          158.5          158.5          1.0306478      1.0193097      1.0954315      0.97720237     1.9088465    
     61540   1.9088465      158.5          158.5          158.5          1.030648       1.0193099      1.0954315      0.97720273     1.9088465    
     61560   1.9088465      158.5          158.5          158.5          1.0306486      1.0193107      1.0954319      0.9772032      1.9088465    
     61580   1.9088465      158.5          158.5          158.5          1.0306497      1.0193116      1.0954332      0.9772043      1.9088465    
     61600   1.9088465      158.5          158.5          158.5          1.0306495      1.019311       1.0954335      0.9772039      1.9088465    
     61620   1.9088465      158.5          158.5          158.5          1.0306489      1.0193109      1.0954323      0.97720364     1.9088465    
     61640   1.9088465      158.5          158.5          158.5          1.0306488      1.0193106      1.0954324      0.97720343     1.9088465    
     61660   1.9088465      158.5          158.5          158.5          1.03065        1.0193118      1.0954337      0.97720459     1.9088465    
     61680   1.9088465      158.5          158.5          158.5          1.0306506      1.0193124      1.0954342      0.97720512     1.9088465    
     61700   1.9088465      158.5          158.5          158.5          1.0306502      1.0193117      1.0954344      0.97720456     1.9088465    
     61720   1.9088465      158.5          158.5          158.5          1.0306489      1.019311       1.0954322      0.97720351     1.9088465    
     61740   1.9088465      158.5          158.5          158.5          1.0306486      1.0193106      1.0954321      0.97720315     1.9088465    
     61760   1.9088465      158.5          158.5          158.5          1.0306475      1.0193091      1.0954312      0.97720207     1.9088465    
     61780   1.9088465      158.5          158.5          158.5          1.0306458      1.0193076      1.0954294      0.9772005      1.9088465    
     61800   1.9088465      158.5          158.5          158.5          1.0306438      1.0193054      1.0954272      0.97719897     1.9088465    
     61820   1.9088465      158.5          158.5          158.5          1.0306463      1.0193082      1.0954298      0.97720093     1.9088465    
     61840   1.9088465      158.5          158.5          158.5          1.0306483      1.0193099      1.095432       0.97720288     1.9088465    
     61860   1.9088465      158.5          158.5          158.5          1.0306487      1.0193106      1.0954322      0.97720331     1.9088465    
     61880   1.9088465      158.5          158.5          158.5          1.0306491      1.0193109      1.0954327      0.97720365     1.9088465    
     61900   1.9088465      158.5          158.5          158.5          1.0306501      1.0193118      1.095434       0.97720451     1.9088465    
     61920   1.9088465      158.5          158.5          158.5          1.030651       1.0193126      1.0954347      0.97720552     1.9088465    
     61940   1.9088465      158.5          158.5          158.5          1.03065        1.0193116      1.0954339      0.97720462     1.9088465    
     61960   1.9088465      158.5          158.5          158.5          1.030649       1.0193109      1.0954326      0.97720343     1.9088465    
     61980   1.9088465      158.5          158.5          158.5          1.0306492      1.0193106      1.0954333      0.97720359     1.9088465    
     62000   1.9088465      158.5          158.5          158.5          1.0306496      1.0193114      1.0954332      0.97720423     1.9088465    
     62020   1.9088465      158.5          158.5          158.5          1.0306499      1.0193118      1.0954334      0.97720448     1.9088465    
     62040   1.9088465      158.5          158.5          158.5          1.030649       1.0193109      1.0954325      0.9772037      1.9088465    
     62060   1.9088465      158.5          158.5          158.5          1.0306482      1.0193105      1.0954311      0.97720312     1.9088465    
     62080   1.9088465      158.5          158.5          158.5          1.0306477      1.0193097      1.0954313      0.97720223     1.9088465    
     62100   1.9088465      158.5          158.5          158.5          1.0306475      1.0193095      1.0954309      0.97720206     1.9088465    
     62120   1.9088465      158.5          158.5          158.5          1.0306479      1.0193095      1.0954319      0.97720235     1.9088465    
     62140   1.9088465      158.5          158.5          158.5          1.0306484      1.0193102      1.095432       0.97720292     1.9088465    
     62160   1.9088465      158.5          158.5          158.5          1.0306489      1.0193108      1.0954324      0.97720354     1.9088465    
     62180   1.9088465      158.5          158.5          158.5          1.0306496      1.0193115      1.0954331      0.97720421     1.9088465    
     62200   1.9088465      158.5          158.5          158.5          1.0306494      1.0193114      1.0954329      0.97720405     1.9088465    
     62220   1.9088465      158.5          158.5          158.5          1.030649       1.0193108      1.0954327      0.97720349     1.9088465    
     62240   1.9088465      158.5          158.5          158.5          1.0306486      1.0193104      1.0954322      0.97720324     1.9088465    
     62260   1.9088465      158.5          158.5          158.5          1.0306497      1.0193114      1.0954334      0.97720422     1.9088465    
     62280   1.9088465      158.5          158.5          158.5          1.0306502      1.019312       1.095434       0.97720475     1.9088465    
     62300   1.9088465      158.5          158.5          158.5          1.0306496      1.0193114      1.0954333      0.97720411     1.9088465    
     62320   1.9088465      158.5          158.5          158.5          1.0306487      1.0193105      1.0954323      0.97720322     1.9088465    
     62340   1.9088465      158.5          158.5          158.5          1.0306483      1.0193101      1.095432       0.97720282     1.9088465    
     62360   1.9088465      158.5          158.5          158.5          1.0306476      1.0193093      1.0954314      0.97720217     1.9088465    
     62380   1.9088465      158.5          158.5          158.5          1.030646       1.0193078      1.0954297      0.97720066     1.9088465    
     62400   1.9088465      158.5          158.5          158.5          1.030644       1.0193057      1.0954274      0.97719903     1.9088465    
     62420   1.9088465      158.5          158.5          158.5          1.0306463      1.0193082      1.0954297      0.97720086     1.9088465    
     62440   1.9088465      158.5          158.5          158.5          1.0306477      1.0193096      1.0954312      0.9772023      1.9088465    
     62460   1.9088465      158.5          158.5          158.5          1.0306482      1.0193098      1.095432       0.97720279     1.9088465    
     62480   1.9088465      158.5          158.5          158.5          1.0306487      1.0193103      1.0954326      0.97720312     1.9088465    
     62500   1.9088465      158.5          158.5          158.5          1.0306496      1.0193111      1.0954337      0.97720407     1.9088465    
     62520   1.9088465      158.5          158.5          158.5          1.0306502      1.0193117      1.0954343      0.9772046      1.9088465    
     62540   1.9088465      158.5          158.5          158.5          1.0306499      1.0193117      1.0954334      0.97720455     1.9088465    
     62560   1.9088465      158.5          158.5          158.5          1.0306488      1.0193107      1.0954323      0.97720338     1.9088465    
     62580   1.9088465      158.5          158.5          158.5          1.0306488      1.0193107      1.0954323      0.97720338     1.9088465    
     62600   1.9088465      158.5          158.5          158.5          1.0306495      1.0193113      1.0954333      0.97720402     1.9088465    
     62620   1.9088465      158.5          158.5          158.5          1.0306497      1.0193115      1.0954334      0.97720422     1.9088465    
     62640   1.9088465      158.5          158.5          158.5          1.0306489      1.0193107      1.0954324      0.97720363     1.9088465    
     62660   1.9088465      158.5          158.5          158.5          1.0306484      1.0193101      1.095432       0.97720302     1.9088465    
     62680   1.9088465      158.5          158.5          158.5          1.0306481      1.01931        1.0954317      0.97720248     1.9088465    
     62700   1.9088465      158.5          158.5          158.5          1.0306476      1.0193094      1.0954312      0.97720213     1.9088465    
     62720   1.9088465      158.5          158.5          158.5          1.0306479      1.0193097      1.0954316      0.97720246     1.9088465    
     62740   1.9088465      158.5          158.5          158.5          1.0306487      1.0193106      1.0954322      0.97720335     1.9088465    
     62760   1.9088465      158.5          158.5          158.5          1.0306489      1.0193108      1.0954323      0.97720356     1.9088465    
     62780   1.9088465      158.5          158.5          158.5          1.0306495      1.0193113      1.0954331      0.97720402     1.9088465    
     62800   1.9088465      158.5          158.5          158.5          1.0306493      1.0193115      1.0954324      0.97720412     1.9088465    
     62820   1.9088465      158.5          158.5          158.5          1.0306489      1.0193108      1.0954325      0.97720344     1.9088465    
     62840   1.9088465      158.5          158.5          158.5          1.0306488      1.0193108      1.0954322      0.97720346     1.9088465    
     62860   1.9088465      158.5          158.5          158.5          1.0306496      1.0193116      1.0954331      0.97720408     1.9088465    
     62880   1.9088465      158.5          158.5          158.5          1.0306501      1.0193122      1.0954335      0.97720467     1.9088465    
     62900   1.9088465      158.5          158.5          158.5          1.0306495      1.0193114      1.095433       0.97720408     1.9088465    
     62920   1.9088465      158.5          158.5          158.5          1.0306487      1.0193104      1.0954324      0.97720315     1.9088465    
     62940   1.9088465      158.5          158.5          158.5          1.0306482      1.01931        1.0954319      0.97720281     1.9088465    
     62960   1.9088465      158.5          158.5          158.5          1.0306478      1.0193097      1.0954315      0.9772022      1.9088465    
     62980   1.9088465      158.5          158.5          158.5          1.0306465      1.0193083      1.0954299      0.97720125     1.9088465    
     63000   1.9088465      158.5          158.5          158.5          1.0306445      1.0193067      1.0954273      0.97719958     1.9088465    
     63020   1.9088465      158.5          158.5          158.5          1.0306465      1.0193085      1.0954299      0.97720105     1.9088465    
     63040   1.9088465      158.5          158.5          158.5          1.0306478      1.0193097      1.0954313      0.97720232     1.9088465    
     63060   1.9088465      158.5          158.5          158.5          1.0306482      1.0193101      1.0954317      0.97720281     1.9088465    
     63080   1.9088465      158.5          158.5          158.5          1.0306488      1.0193104      1.0954326      0.97720327     1.9088465    
     63100   1.9088465      158.5          158.5          158.5          1.0306496      1.019311       1.0954337      0.97720403     1.9088465    
     63120   1.9088465      158.5          158.5          158.5          1.0306501      1.0193118      1.0954339      0.97720459     1.9088465    
     63140   1.9088465      158.5          158.5          158.5          1.0306497      1.0193115      1.0954333      0.97720423     1.9088465    
     63160   1.9088465      158.5          158.5          158.5          1.0306486      1.0193104      1.0954321      0.9772033      1.9088465    
     63180   1.9088465      158.5          158.5          158.5          1.0306487      1.0193105      1.0954324      0.97720326     1.9088465    
     63200   1.9088465      158.5          158.5          158.5          1.0306492      1.0193111      1.0954327      0.97720392     1.9088465    
     63220   1.9088465      158.5          158.5          158.5          1.0306495      1.0193113      1.0954331      0.97720398     1.9088465    
     63240   1.9088465      158.5          158.5          158.5          1.0306488      1.0193109      1.0954321      0.97720352     1.9088465    
     63260   1.9088465      158.5          158.5          158.5          1.0306486      1.0193104      1.095432       0.97720324     1.9088465    
     63280   1.9088465      158.5          158.5          158.5          1.0306479      1.0193098      1.0954316      0.97720239     1.9088465    
     63300   1.9088465      158.5          158.5          158.5          1.0306475      1.0193094      1.0954311      0.97720209     1.9088465    
     63320   1.9088465      158.5          158.5          158.5          1.030648       1.01931        1.0954315      0.97720244     1.9088465    
     63340   1.9088465      158.5          158.5          158.5          1.0306486      1.0193105      1.0954321      0.9772033      1.9088465    
     63360   1.9088465      158.5          158.5          158.5          1.0306489      1.0193108      1.0954323      0.97720368     1.9088465    
     63380   1.9088465      158.5          158.5          158.5          1.0306494      1.0193113      1.095433       0.97720398     1.9088465    
     63400   1.9088465      158.5          158.5          158.5          1.0306495      1.0193112      1.0954331      0.97720409     1.9088465    
     63420   1.9088465      158.5          158.5          158.5          1.0306486      1.0193105      1.0954321      0.97720322     1.9088465    
     63440   1.9088465      158.5          158.5          158.5          1.0306489      1.0193107      1.0954323      0.9772036      1.9088465    
     63460   1.9088465      158.5          158.5          158.5          1.0306497      1.0193114      1.0954334      0.97720421     1.9088465    
     63480   1.9088465      158.5          158.5          158.5          1.0306503      1.0193121      1.0954339      0.97720478     1.9088465    
     63500   1.9088465      158.5          158.5          158.5          1.0306492      1.019311       1.0954329      0.97720368     1.9088465    
     63520   1.9088465      158.5          158.5          158.5          1.0306487      1.0193106      1.0954324      0.97720328     1.9088465    
     63540   1.9088465      158.5          158.5          158.5          1.0306482      1.0193101      1.0954317      0.97720282     1.9088465    
     63560   1.9088465      158.5          158.5          158.5          1.0306476      1.0193095      1.0954312      0.97720226     1.9088465    
     63580   1.9088465      158.5          158.5          158.5          1.0306459      1.0193079      1.0954294      0.97720053     1.9088465    
     63600   1.9088465      158.5          158.5          158.5          1.0306443      1.0193057      1.0954285      0.9771986      1.9088465    
     63620   1.9088465      158.5          158.5          158.5          1.0306455      1.0193076      1.0954288      0.97720029     1.9088465    
     63640   1.9088465      158.5          158.5          158.5          1.0306474      1.0193093      1.0954308      0.97720206     1.9088465    
     63660   1.9088465      158.5          158.5          158.5          1.0306481      1.01931        1.0954317      0.97720266     1.9088465    
     63680   1.9088465      158.5          158.5          158.5          1.0306486      1.0193104      1.0954321      0.97720314     1.9088465    
     63700   1.9088465      158.5          158.5          158.5          1.0306491      1.019311       1.0954327      0.97720359     1.9088465    
     63720   1.9088465      158.5          158.5          158.5          1.0306501      1.0193119      1.0954337      0.97720471     1.9088465    
     63740   1.9088465      158.5          158.5          158.5          1.0306498      1.0193118      1.0954334      0.97720438     1.9088465    
     63760   1.9088465      158.5          158.5          158.5          1.0306491      1.019311       1.0954326      0.97720379     1.9088465    
     63780   1.9088465      158.5          158.5          158.5          1.0306487      1.0193107      1.095432       0.97720328     1.9088465    
     63800   1.9088465      158.5          158.5          158.5          1.0306491      1.0193108      1.0954328      0.97720356     1.9088465    
     63820   1.9088465      158.5          158.5          158.5          1.0306496      1.0193114      1.0954332      0.97720418     1.9088465    
     63837   1.9088465      158.5          158.5          158.5          1.030649       1.0193108      1.0954325      0.9772036      1.9088465    
Loop time of 5.64575 on 1 procs for 63837 steps with 100 atoms

95.1% CPU use with 1 MPI tasks x no OpenMP threads

Minimization stats:
  Stopping criterion = energy tolerance
  Energy initial, next-to-last, final = 
      87.4705890254573   1.90884653474737   1.90884653474737
  Force two-norm initial, final = 295.88097 1.1032222e-05
  Force max component initial, final = 66.928052 2.2956157e-06
  Final line search alpha, max atom move = 1 2.2956157e-06
  Iterations, force evaluations = 63837 127803

MPI task timing breakdown:
Section |  min time  |  avg time  |  max time  |%varavg| %total
---------------------------------------------------------------
Pair    | 2.2891     | 2.2891     | 2.2891     |   0.0 | 40.55
Bond    | 2.7369     | 2.7369     | 2.7369     |   0.0 | 48.48
Neigh   | 0.0040273  | 0.0040273  | 0.0040273  |   0.0 |  0.07
Comm    | 0.022779   | 0.022779   | 0.022779   |   0.0 |  0.40
Output  | 0.25286    | 0.25286    | 0.25286    |   0.0 |  4.48
Modify  | 0          | 0          | 0          |   0.0 |  0.00
Other   |            | 0.3401     |            |       |  6.02

Nlocal:            100 ave         100 max         100 min
Histogram: 1 0 0 0 0 0 0 0 0 0
Nghost:              0 ave           0 max           0 min
Histogram: 1 0 0 0 0 0 0 0 0 0
Neighs:            487 ave         487 max         487 min
Histogram: 1 0 0 0 0 0 0 0 0 0
FullNghs:            0 ave           0 max           0 min
Histogram: 1 0 0 0 0 0 0 0 0 0

Total # of neighbors = 487
Ave neighs/atom = 4.87
Ave special neighs/atom = 5.88
Neighbor list builds = 45
Dangerous builds = 0

# Get the equilibrium distance of the harmonic bond (type 1)
variable eq_dist equal 1.0  # Replace with the actual equilibrium distance

# Continue with your simulation steps
thermo_style custom step temp
thermo 1000
timestep 1

# Run the simulation for a specified number of steps
variable num_steps equal 100000
label loop_start

# First reaction
fix react1 all bond/react k forward 1 2 1 ${eq_dist} react_region react_dist 2*${eq_dist}
fix react1 all bond/react k forward 1 2 1 1 react_region react_dist 2*${eq_dist}
fix react1 all bond/react k forward 1 2 1 1 react_region react_dist 2*1
ERROR: Illegal fix bond/react command: missing mandatory 'react' argument (src/src/REACTION/fix_bond_react.cpp:178)
Last command: fix react1 all bond/react k forward 1 2 1 ${eq_dist} react_region react_dist 2*${eq_dist}
