read_data	InitialFile.txt
Reading data file ...
  orthogonal box = (0 0 0) to (158.5 158.5 158.5)
  1 by 1 by 1 MPI processor grid
WARNING: Atom style in data file atomic differs from currently defined atom style molecular (src/src/read_data.cpp:621)
  reading atoms ...
  100 atoms
  scanning bonds ...
  1 = max bonds/atom
  scanning angles ...
  1 = max angles/atom
  scanning dihedrals ...
  1 = max dihedrals/atom
  reading bonds ...
  99 bonds
  reading angles ...
  98 angles
  reading dihedrals ...
  97 dihedrals
Finding 1-2 1-3 1-4 neighbors ...
  special bond factors lj:    0        0        0       
  special bond factors coul:  0        0        0       
     2 = max # of 1-2 neighbors
     2 = max # of 1-3 neighbors
     4 = max # of 1-4 neighbors
     6 = max # of special neighbors
  special bonds CPU = 0.012 seconds
  read_data CPU = 0.039 seconds

# Dreiding potential information
neighbor	2.0 bin
neigh_modify every 1 delay 0 check yes

bond_style      harmonic
bond_coeff	1 350 1.53
bond_coeff	2 700 1.53

angle_style     harmonic
angle_coeff	1 60 109.5
angle_coeff	2 120 109.5

dihedral_style	multi/harmonic
dihedral_coeff	1 1.73 -4.49 0.776 6.99 0.0
dihedral_coeff	2 1.73 -4.49 0.776 6.99 0.0

pair_style	lj/cut 10.5
pair_coeff	* * 1.0 1.0 10.5
pair_coeff	3 3 2.0 0.5 10.5

compute csym all centro/atom fcc
compute peratom all pe/atom


#####################################################
# Equilibration (Brownian dynamics at 300 K)

velocity 	all create 300.0 1231
fix		1 all nve/limit 0.05
fix 2 all brownian 30.0 12908410 gamma_t 3.0 rng gaussian # Compute a correct 300K simulation, check the value for gamma_t
thermo_style	custom step temp
thermo          10000
timestep	1
run		100000
Generated 0 of 3 mixed pair_coeff terms from geometric mixing rule
WARNING: One or more atoms are time integrated more than once (src/src/modify.cpp:289)
Neighbor list info ...
  update: every = 1 steps, delay = 0 steps, check = yes
  max neighbors/atom: 2000, page size: 100000
  master list distance cutoff = 12.5
  ghost atom cutoff = 12.5
  binsize = 6.25, bins = 26 26 26
  2 neighbor lists, perpetual/occasional/extra = 1 1 0
  (1) pair lj/cut, perpetual
      attributes: half, newton on
      pair build: half/bin/newton
      stencil: half/bin/3d
      bin: standard
  (2) compute centro/atom, occasional
      attributes: full, newton on
      pair build: full/bin
      stencil: full/bin/3d
      bin: standard
Per MPI rank memory allocation (min/avg/max) = 8.124 | 8.124 | 8.124 Mbytes
   Step          Temp     
         0   300          
     10000   304.01368    
     20000   255.71863    
     30000   321.10868    
     40000   293.71464    
     50000   283.40994    
     60000   300.47507    
     70000   318.63661    
     80000   273.50579    
     90000   333.95695    
    100000   337.94215    
Loop time of 2.81021 on 1 procs for 100000 steps with 100 atoms

Performance: 3074.499 ns/day, 0.008 hours/ns, 35584.479 timesteps/s, 3.558 Matom-step/s
97.4% CPU use with 1 MPI tasks x no OpenMP threads

MPI task timing breakdown:
Section |  min time  |  avg time  |  max time  |%varavg| %total
---------------------------------------------------------------
Pair    | 0.6222     | 0.6222     | 0.6222     |   0.0 | 22.14
Bond    | 1.346      | 1.346      | 1.346      |   0.0 | 47.90
Neigh   | 0.0040944  | 0.0040944  | 0.0040944  |   0.0 |  0.15
Comm    | 0.014764   | 0.014764   | 0.014764   |   0.0 |  0.53
Output  | 0.00022201 | 0.00022201 | 0.00022201 |   0.0 |  0.01
Modify  | 0.76371    | 0.76371    | 0.76371    |   0.0 | 27.18
Other   |            | 0.05927    |            |       |  2.11

Nlocal:            100 ave         100 max         100 min
Histogram: 1 0 0 0 0 0 0 0 0 0
Nghost:              0 ave           0 max           0 min
Histogram: 1 0 0 0 0 0 0 0 0 0
Neighs:            630 ave         630 max         630 min
Histogram: 1 0 0 0 0 0 0 0 0 0
FullNghs:            0 ave           0 max           0 min
Histogram: 1 0 0 0 0 0 0 0 0 0

Total # of neighbors = 630
Ave neighs/atom = 6.3
Ave special neighs/atom = 5.88
Neighbor list builds = 80
Dangerous builds = 0
unfix 1
unfix 2
write_restart 	restart.${simname}.dreiding1
write_restart 	restart.InitialFile.dreiding1
System init for write_restart ...
Generated 0 of 3 mixed pair_coeff terms from geometric mixing rule

#####################################################
# Define Settings
compute eng all pe/atom
compute eatoms all reduce sum c_eng

#####################################################
# Minimization

dump mydmp all atom 100 dump.lammpstrj

reset_timestep 0
fix 1 all nvt temp 300.0 300.0 100.0
thermo 20
thermo_style custom step pe lx ly lz press pxx pyy pzz c_eatoms
min_style cg
minimize 1e-25 1e-25 500000 1000000
Generated 0 of 3 mixed pair_coeff terms from geometric mixing rule
Per MPI rank memory allocation (min/avg/max) = 9.249 | 9.249 | 9.249 Mbytes
   Step         PotEng           Lx             Ly             Lz           Press           Pxx            Pyy            Pzz          c_eatoms   
         0   17.331209      158.5          158.5          158.5          1.9210942      2.5747389      0.85117171     2.337372       17.331209    
        20   2.9126904      158.5          158.5          158.5          2.2663494      2.3868324      2.3049927      2.1072233      2.9126904    
        40   2.2665544      158.5          158.5          158.5          2.2457298      2.4420687      2.199619       2.0955018      2.2665544    
        60   2.069901       158.5          158.5          158.5          2.2243409      2.3884823      2.2220498      2.0624906      2.069901     
        80   1.8019393      158.5          158.5          158.5          2.2007921      2.3779578      2.2626009      1.9618175      1.8019393    
       100   1.5054239      158.5          158.5          158.5          1.8329001      1.9800847      1.824118       1.6944978      1.5054239    
       105   1.5054239      158.5          158.5          158.5          1.8329001      1.9800847      1.824118       1.6944978      1.5054239    
Loop time of 0.0107487 on 1 procs for 105 steps with 100 atoms

86.6% CPU use with 1 MPI tasks x no OpenMP threads

Minimization stats:
  Stopping criterion = energy tolerance
  Energy initial, next-to-last, final = 
      17.3312087506454   1.50542389412974   1.50542389412974
  Force two-norm initial, final = 155.63534 9.6237955
  Force max component initial, final = 33.962672 4.5021726
  Final line search alpha, max atom move = 0.011105749 0.05
  Iterations, force evaluations = 105 302

MPI task timing breakdown:
Section |  min time  |  avg time  |  max time  |%varavg| %total
---------------------------------------------------------------
Pair    | 0.0039462  | 0.0039462  | 0.0039462  |   0.0 | 36.71
Bond    | 0.0048165  | 0.0048165  | 0.0048165  |   0.0 | 44.81
Neigh   | 0          | 0          | 0          |   0.0 |  0.00
Comm    | 4.5069e-05 | 4.5069e-05 | 4.5069e-05 |   0.0 |  0.42
Output  | 0.001101   | 0.001101   | 0.001101   |   0.0 | 10.24
Modify  | 0          | 0          | 0          |   0.0 |  0.00
Other   |            | 0.0008398  |            |       |  7.81

Nlocal:            100 ave         100 max         100 min
Histogram: 1 0 0 0 0 0 0 0 0 0
Nghost:              0 ave           0 max           0 min
Histogram: 1 0 0 0 0 0 0 0 0 0
Neighs:            639 ave         639 max         639 min
Histogram: 1 0 0 0 0 0 0 0 0 0
FullNghs:            0 ave           0 max           0 min
Histogram: 1 0 0 0 0 0 0 0 0 0

Total # of neighbors = 639
Ave neighs/atom = 6.39
Ave special neighs/atom = 5.88
Neighbor list builds = 0
Dangerous builds = 0

group type1_atoms type 1
38 atoms in group type1_atoms
group type2_atoms type 2
31 atoms in group type2_atoms
group type3_atoms type 3
31 atoms in group type3_atoms

molecule mol1closeTo3PRE mol1closeTo3PRE.txt
Read molecule template mol1closeTo3PRE:
  1 molecules
  0 fragments
  4 atoms with max type 3
  3 bonds with max type 1
  2 angles with max type 1
  1 dihedrals with max type 1
  0 impropers with max type 0
molecule mol1closeTo3POST mol1closeTo3POST.txt
Read molecule template mol1closeTo3POST:
  1 molecules
  0 fragments
  4 atoms with max type 3
  3 bonds with max type 1
  2 angles with max type 1
  1 dihedrals with max type 1
  0 impropers with max type 0
molecule mol3closeTo1POST mol3closeTo1POST.txt
Read molecule template mol3closeTo1POST:
  1 molecules
  0 fragments
  4 atoms with max type 2
  3 bonds with max type 1
  2 angles with max type 1
  1 dihedrals with max type 1
  0 impropers with max type 0
molecule mol2closeTo3PRE mol2closeTo3PRE.txt
Read molecule template mol2closeTo3PRE:
  1 molecules
  0 fragments
  4 atoms with max type 3
  3 bonds with max type 1
  2 angles with max type 1
  1 dihedrals with max type 1
  0 impropers with max type 0
molecule mol2closeTo3POST mol2closeTo3POST.txt
Read molecule template mol2closeTo3POST:
  1 molecules
  0 fragments
  4 atoms with max type 3
  3 bonds with max type 1
  2 angles with max type 1
  1 dihedrals with max type 1
  0 impropers with max type 0
molecule mol3closeTo2POST mol3closeTo2POST.txt
Read molecule template mol3closeTo2POST:
  1 molecules
  0 fragments
  4 atoms with max type 2
  3 bonds with max type 1
  2 angles with max type 1
  1 dihedrals with max type 1
  0 impropers with max type 0
molecule mol2closeTo1PRE mol2closeTo1PRE.txt
Read molecule template mol2closeTo1PRE:
  1 molecules
  0 fragments
  4 atoms with max type 3
  3 bonds with max type 1
  2 angles with max type 1
  1 dihedrals with max type 1
  0 impropers with max type 0
molecule mol2closeTo1POST mol2closeTo1POST.txt
Read molecule template mol2closeTo1POST:
  1 molecules
  0 fragments
  4 atoms with max type 3
  3 bonds with max type 1
  2 angles with max type 1
  1 dihedrals with max type 1
  0 impropers with max type 0

#####################################################
# Do the reactions
fix 3 all bond/react   react reac1to2 all 1 0 3 mol1closeTo3PRE mol1closeTo3POST map_1to2.txt molecule intra   react reac2to3 type2_atoms 1 0 10 mol2closeTo3PRE mol2closeTo3POST map_2to3.txt    react reac3to2 type3_atoms 1 0 10 mol2closeTo3PRE mol3closeTo2POST map_3to2.txt    react reac2to1 type2_atoms 1 0 10 mol2closeTo1PRE mol2closeTo1POST map_2to1.txt
dynamic group bond_react_MASTER_group defined

run 100000

CITE-CITE-CITE-CITE-CITE-CITE-CITE-CITE-CITE-CITE-CITE-CITE-CITE

Your simulation uses code contributions which should be cited:

- fix bond/react: reacter.org doi:10.1016/j.polymer.2017.09.038, doi:10.1021/acs.macromol.0c02012

@Article{Gissinger17,
 author = {J. R. Gissinger and B. D. Jensen and K. E. Wise},
 title = {Modeling Chemical Reactions in Classical Molecular Dynamics Simulations},
 journal = {Polymer},
 year =    2017,
 volume =  128,
 pages =   {211--217}
}

@Article{Gissinger20,
 author = {J. R. Gissinger, B. D. Jensen, K. E. Wise},
 title = {{REACTER}: A Heuristic Method for Reactive Molecular Dynamics},
 journal = {Macromolecules},
 year =    2020,
 volume =  53,
 number =  22,
 pages =   {9953--9961}
}

CITE-CITE-CITE-CITE-CITE-CITE-CITE-CITE-CITE-CITE-CITE-CITE-CITE

Generated 0 of 3 mixed pair_coeff terms from geometric mixing rule
Neighbor list info ...
  update: every = 1 steps, delay = 0 steps, check = yes
  max neighbors/atom: 2000, page size: 100000
  master list distance cutoff = 12.5
  ghost atom cutoff = 12.5
  binsize = 6.25, bins = 26 26 26
  3 neighbor lists, perpetual/occasional/extra = 1 2 0
  (1) pair lj/cut, perpetual
      attributes: half, newton on
      pair build: half/bin/newton
      stencil: half/bin/3d
      bin: standard
  (2) compute centro/atom, occasional
      attributes: full, newton on
      pair build: full/bin
      stencil: full/bin/3d
      bin: standard
  (3) fix bond/react, occasional, copy from (1)
      attributes: half, newton on
      pair build: copy
      stencil: none
      bin: none
Per MPI rank memory allocation (min/avg/max) = 9.565 | 9.565 | 9.565 Mbytes
   Step         PotEng           Lx             Ly             Lz           Press           Pxx            Pyy            Pzz          c_eatoms   
       105   1.5054239      158.5          158.5          158.5          1.8329001      1.9800847      1.824118       1.6944978      1.5054239    
       120   22.767271      158.5          158.5          158.5          1.6081073      3.8689354     -0.10563552     1.0610219      22.767271    
       140   57.780082      158.5          158.5          158.5          2.728618       2.9076614      2.7979288      2.4802638      57.780082    
       160   55.435566      158.5          158.5          158.5         -1.127869      -1.3427336     -1.3036263     -0.73724699     55.435566    
       180   41.904024      158.5          158.5          158.5          0.68738559     4.4437782     -0.75885743    -1.622764       41.904024    
       200   51.739378      158.5          158.5          158.5          1.8214941      3.9259148      1.8349591     -0.29639164     51.739378    
       220   58.955187      158.5          158.5          158.5         -1.7068785     -4.1414        -0.83312144    -0.14611419     58.955187    
       240   59.004139      158.5          158.5          158.5         -0.48361       -1.1707654     -0.87644527     0.59638068     59.004139    
       260   51.02951       158.5          158.5          158.5         -0.1525464      0.98873946     0.54067797    -1.9870566      51.02951     
       280   57.377055      158.5          158.5          158.5         -2.6863529     -4.7786942     -2.1876277     -1.0927368      57.377055    
       300   63.519597      158.5          158.5          158.5         -1.1400303     -2.6911382     -0.60978319    -0.1191694      63.519597    
       320   62.245319      158.5          158.5          158.5         -1.5595375     -2.2700937     -0.33547174    -2.0730472      62.245319    
       340   70.215888      158.5          158.5          158.5         -3.7602456     -4.6919486     -3.5445057     -3.0442826      70.215888    
       360   62.559696      158.5          158.5          158.5         -1.2376523     -2.9225963     -1.3344604      0.54409972     62.559696    
       380   68.563428      158.5          158.5          158.5         -1.3150141     -2.8870615      1.0347244     -2.0927051      68.563428    
       400   70.635341      158.5          158.5          158.5         -3.6850592     -5.6233636     -2.2919192     -3.1398947      70.635341    
       420   75.301169      158.5          158.5          158.5         -0.98180186    -2.3042298     -0.086894745   -0.55428105     75.301169    
       440   74.705785      158.5          158.5          158.5         -0.73874599     0.19384852     0.31395241    -2.7240389      74.705785    
       460   80.094645      158.5          158.5          158.5         -4.5173258     -6.2961889     -3.3543529     -3.9014357      80.094645    
       480   71.716475      158.5          158.5          158.5         -0.74510599    -1.4507684     -1.5525186      0.76796904     71.716475    
       500   92.454796      158.5          158.5          158.5         -1.401165      -0.12541967    -1.4464281     -2.6316472      92.454796    
       520   83.51988       158.5          158.5          158.5         -5.3325862     -3.2701991     -5.0262232     -7.7013363      83.51988     
       540   86.620649      158.5          158.5          158.5         -0.16144317     1.2105933     -2.7458462      1.0509233      86.620649    
       560   81.172456      158.5          158.5          158.5          0.8007405      2.1279741     -2.2455627      2.5198102      81.172456    
       580   99.017662      158.5          158.5          158.5         -4.5730905     -4.1053923     -4.185557      -5.4283222      99.017662    
       600   96.816271      158.5          158.5          158.5          0.88077595     2.1139624      1.2122914     -0.68392591     96.816271    
       620   90.736656      158.5          158.5          158.5          2.0443254      4.6167689     -1.4047076      2.9209149      90.736656    
       640   96.693603      158.5          158.5          158.5         -3.7999251     -5.1917328     -5.4283267     -0.77971589     96.693603    
       660   97.502481      158.5          158.5          158.5          1.2860434      1.5355146      1.2652236      1.0573921      97.502481    
       680   90.496603      158.5          158.5          158.5          2.2809048      5.6249837     -0.29207734     1.509808       90.496603    
       700   90.340524      158.5          158.5          158.5         -4.0015107     -3.4245999     -6.0489086     -2.5310236      90.340524    
       720   82.015537      158.5          158.5          158.5          0.20806342    -1.6145598     -0.74597009     2.9847201      82.015537    
       740   97.300251      158.5          158.5          158.5          1.3339705      2.4589019     -0.47393548     2.016945       97.300251    
       760   91.360714      158.5          158.5          158.5         -4.5122109     -2.7894673     -3.7252292     -7.0219363      91.360714    
       780   75.229556      158.5          158.5          158.5         -0.15746256    -1.1100335      0.63580412     0.0018417482   75.229556    
       800   83.474717      158.5          158.5          158.5          2.6680187      0.61796638     1.8072034      5.5788864      83.474717    
       820   95.394217      158.5          158.5          158.5         -3.3946896     -5.4723106     -0.92940017    -3.7823581      95.394217    
       840   78.009492      158.5          158.5          158.5          0.62519076    -0.95723364     3.7138611     -0.8810552      78.009492    
       860   85.744103      158.5          158.5          158.5          5.0109122      4.8550671      5.0689681      5.1087014      85.744103    
       880   79.908455      158.5          158.5          158.5         -0.74830148    -1.8314692     -0.32799572    -0.08543953     79.908455    
       900   84.160746      158.5          158.5          158.5          1.2881387      0.33760881     4.5375336     -1.0107264      84.160746    
       920   85.985664      158.5          158.5          158.5          5.6546219      5.7761415      7.9231641      3.26456        85.985664    
       940   74.700193      158.5          158.5          158.5         -0.59803232    -0.72229397    -0.57474835    -0.49705465     74.700193    
       960   82.401987      158.5          158.5          158.5          0.36290084    -0.13741042     0.62845616     0.59765679     82.401987    
       980   76.261504      158.5          158.5          158.5          4.4292778      3.1474878      6.2730294      3.8673163      76.261504    
      1000   85.885473      158.5          158.5          158.5         -0.86446677     0.17341569    -0.28042414    -2.4863919      85.885473    
      1020   83.691667      158.5          158.5          158.5         -0.16383439     2.7639938     -2.7869777     -0.46851923     83.691667    
      1040   93.319272      158.5          158.5          158.5          3.0972276      3.1160115      1.3357514      4.83992        93.319272    
      1060   85.82495       158.5          158.5          158.5         -0.51664117    -1.9091297     -0.015377819    0.37458404     85.82495     
      1080   88.938182      158.5          158.5          158.5         -0.14671562     3.1138054     -2.8808204     -0.67313183     88.938182    
      1100   90.749357      158.5          158.5          158.5          2.5210725      3.7095926     -1.3998933      5.253518       90.749357    
      1120   91.549869      158.5          158.5          158.5         -0.49253445    -3.6655009      0.087309973    2.1005876      91.549869    
      1140   80.272391      158.5          158.5          158.5         -0.55693897     0.38203913     0.71219328    -2.7650493      80.272391    
      1160   89.665778      158.5          158.5          158.5          1.8165709      3.392525      -0.49221387     2.5494015      89.665778    
      1180   90.187831      158.5          158.5          158.5          0.1311503     -0.55185903    -1.1715211      2.116831       90.187831    
      1200   78.886405      158.5          158.5          158.5         -0.96603734    -0.40872938     0.63092601    -3.1203086      78.886405    
      1220   93.26905       158.5          158.5          158.5          0.5085054      1.5617088      1.3168669     -1.3530595      93.26905     
      1240   92.801578      158.5          158.5          158.5         -0.26414353    -1.7192958      1.2277612     -0.30089605     92.801578    
      1260   95.619619      158.5          158.5          158.5         -1.106         -2.1727526      0.62984546    -1.7750928      95.619619    
      1280   94.920334      158.5          158.5          158.5         -0.49436364    -1.7761178      1.4785784     -1.1855515      94.920334    
      1300   87.6485        158.5          158.5          158.5          0.25890968    -3.1412605      2.5994269      1.3185626      87.6485      
      1320   91.383625      158.5          158.5          158.5         -0.69348728    -1.4868762      0.83507353    -1.4286592      91.383625    
      1340   84.599986      158.5          158.5          158.5         -1.3036707     -1.9244788      1.2477985     -3.2343318      84.599986    
      1360   85.373444      158.5          158.5          158.5          0.57069887    -3.0141813      2.8130431      1.9132348      85.373444    
      1380   91.871618      158.5          158.5          158.5          0.46226691    -1.5252242      2.3069757      0.60504922     91.871618    
      1400   94.25605       158.5          158.5          158.5         -1.7628389     -0.4604982     -1.0029984     -3.8250201      94.25605     
      1420   84.990864      158.5          158.5          158.5          1.7204434      2.7209042      0.39535774     2.0450683      84.990864    
      1440   79.253684      158.5          158.5          158.5          2.0623717      1.5484678      2.2473809      2.3912662      79.253684    
      1460   95.983332      158.5          158.5          158.5         -0.70828353     1.0604569     -0.80273903    -2.3825684      95.983332    
      1480   91.328         158.5          158.5          158.5          1.5124688      5.4681285     -2.1504959      1.2197738      91.328       
      1500   74.227125      158.5          158.5          158.5          2.2850342      2.2154053      1.1112063      3.5284911      74.227125    
      1520   88.925769      158.5          158.5          158.5         -0.62936418    -2.8093573      1.1930944     -0.2718296      88.925769    
      1540   89.200302      158.5          158.5          158.5          1.7151743      1.3496024      2.3820112      1.4139093      89.200302    
      1560   78.015493      158.5          158.5          158.5          3.3154912      4.8786238      2.5501165      2.5177334      78.015493    
      1580   79.172868      158.5          158.5          158.5         -1.2207762     -0.31528747    -2.5365883     -0.81045297     79.172868    
      1600   78.645417      158.5          158.5          158.5         -0.46650826    -1.4337384     -1.8123026      1.8465162      78.645417    
      1620   87.118193      158.5          158.5          158.5          0.69977227     1.843274       0.6388849     -0.38284211     87.118193    
      1640   79.280463      158.5          158.5          158.5         -2.7467945      1.4363545     -5.4581299     -4.218608       79.280463    
      1660   84.058124      158.5          158.5          158.5         -2.095935      -0.14957833    -5.3741831     -0.76404375     84.058124    
      1680   78.107502      158.5          158.5          158.5         -0.11809124    -0.23444954    -0.057894651   -0.061929514    78.107502    
      1700   81.976692      158.5          158.5          158.5         -1.5539832     -1.0456541     -1.1346357     -2.4816597      81.976692    
      1720   85.71248       158.5          158.5          158.5         -0.50577489     0.67210524    -0.87450057    -1.3149293      85.71248     
      1740   77.078314      158.5          158.5          158.5          1.3850976      0.92619548     0.57695988     2.6521374      77.078314    
      1760   90.402968      158.5          158.5          158.5         -0.12519915    -2.727399       2.5038021     -0.15200053     90.402968    
      1780   79.899248      158.5          158.5          158.5          0.09661347    -2.8304992      2.0198265      1.1005131      79.899248    
      1800   87.361934      158.5          158.5          158.5          0.97524787     0.39059309    -1.4698122      4.0049627      87.361934    
      1820   87.739462      158.5          158.5          158.5          0.7481735      0.63814679     0.11880855     1.4875652      87.739462    
      1840   83.914547      158.5          158.5          158.5          0.43696295    -1.1224977      1.9629194      0.47046711     83.914547    
      1860   80.523786      158.5          158.5          158.5          1.8609305      1.3068161      2.4231256      1.8528497      80.523786    
      1880   93.606718      158.5          158.5          158.5          2.2033115      5.4756437      1.4193429     -0.28505217     93.606718    
      1900   92.711208      158.5          158.5          158.5          0.88374929     1.0240529      1.2211782      0.40601681     92.711208    
      1920   86.23441       158.5          158.5          158.5          2.2677302     -1.1001514      3.961466       3.9418761      86.23441     
      1940   89.830796      158.5          158.5          158.5          3.187416       2.7218472      4.7385824      2.1018185      89.830796    
      1960   90.246243      158.5          158.5          158.5          1.2033433      4.2459625     -0.40611024    -0.22982249     90.246243    
      1980   99.721183      158.5          158.5          158.5          2.2393347      1.4518268      2.137346       3.1288312      99.721183    
      2000   85.184329      158.5          158.5          158.5          4.0042592      2.3779806      6.9241603      2.7106366      85.184329    
      2020   90.842877      158.5          158.5          158.5          2.2629557      3.6862522      2.9735811      0.12903394     90.842877    
      2040   86.010567      158.5          158.5          158.5          2.2202158      4.762183      -0.089314071    1.9877784      86.010567    
      2060   93.075643      158.5          158.5          158.5          3.3675944      3.7764694      1.813201       4.5131128      93.075643    
      2080   82.008925      158.5          158.5          158.5          0.87133901     0.76663884     0.92450731     0.92287086     82.008925    
      2100   88.335535      158.5          158.5          158.5         -0.5269167      0.1187699     -0.042244643   -1.6572754      88.335535    
      2120   84.903118      158.5          158.5          158.5          2.3078864      3.901338       0.2740574      2.7482639      84.903118    
      2140   78.828166      158.5          158.5          158.5         -0.53827029    -0.94879531     0.28505869    -0.95107426     78.828166    
      2160   79.675339      158.5          158.5          158.5         -2.776828      -3.8409097     -2.4905811     -1.998993       79.675339    
      2180   84.203561      158.5          158.5          158.5          0.38850148     1.5264061     -1.5683788      1.2074772      84.203561    
      2200   88.64291       158.5          158.5          158.5         -2.4341967     -2.8236776     -1.5809787     -2.8979337      88.64291     
      2220   79.374953      158.5          158.5          158.5         -4.1420991     -5.9353823     -2.9891771     -3.5017378      79.374953    
      2240   80.287821      158.5          158.5          158.5          0.28780176    -0.75273871    -0.050220964    1.6663649      80.287821    
      2260   77.282058      158.5          158.5          158.5         -2.0542787     -2.0320661     -1.290188      -2.8405821      77.282058    
      2280   80.776531      158.5          158.5          158.5         -3.9340624     -3.1854038     -4.2650844     -4.351699       80.776531    
      2300   83.89406       158.5          158.5          158.5          0.27197125     0.74182793    -1.2331999      1.3072857      83.89406     
      2320   67.888721      158.5          158.5          158.5         -2.072503      -4.3657729     -0.92346303    -0.92827311     67.888721    
      2340   86.743379      158.5          158.5          158.5         -4.3601179     -7.0693822     -1.3485299     -4.6624416      86.743379    
      2360   81.340281      158.5          158.5          158.5          0.40398782     1.5207326     -0.23513373    -0.073635418    81.340281    
      2380   85.770445      158.5          158.5          158.5         -1.7961267     -1.5912333     -2.5994829     -1.1976639      85.770445    
      2400   75.410196      158.5          158.5          158.5         -2.7161354     -5.6835469      0.60805416    -3.0729135      75.410196    
      2420   86.554362      158.5          158.5          158.5          2.004862       2.8482531      3.2027441     -0.03641118     86.554362    
      2440   82.629212      158.5          158.5          158.5         -1.1225706      0.69603209    -2.6692575     -1.3944864      82.629212    
      2460   78.723111      158.5          158.5          158.5         -1.8997307     -2.2871888     -1.6174528     -1.7945505      78.723111    
      2480   91.343127      158.5          158.5          158.5          2.2288187      2.5882174      3.1477453      0.95049323     91.343127    
      2500   86.070824      158.5          158.5          158.5         -1.4338188      0.49576538    -0.49672765    -4.300494       86.070824    
      2520   78.425006      158.5          158.5          158.5         -1.1699363      1.514466      -1.9599495     -3.0643253      78.425006    
      2540   76.940128      158.5          158.5          158.5          1.8579051      4.6257018     -0.46578224     1.4137958      76.940128    
      2560   78.432678      158.5          158.5          158.5         -1.8186392     -1.8334501     -1.5499828     -2.0724848      78.432678    
      2580   78.068347      158.5          158.5          158.5         -1.7087943     -2.0290612     -0.22701075    -2.870311       78.068347    
      2600   83.054205      158.5          158.5          158.5         -0.35143111     0.84780618    -1.2134312     -0.68866829     83.054205    
      2620   84.72783       158.5          158.5          158.5         -3.9700654     -4.7144173     -4.6917027     -2.5040762      84.72783     
      2640   83.143368      158.5          158.5          158.5         -2.9381498     -3.7076969     -3.9738782     -1.1328742      83.143368    
      2660   79.868049      158.5          158.5          158.5         -0.38894596    -0.94149596    -0.82893314     0.60359123     79.868049    
      2680   83.496017      158.5          158.5          158.5         -1.1678178     -1.6656077     -0.99961981    -0.83822584     83.496017    
      2700   79.375369      158.5          158.5          158.5         -1.291156      -0.52463794    -3.148933      -0.199897       79.375369    
      2720   86.479136      158.5          158.5          158.5         -0.046860912    0.91966576    -1.5120566      0.4518081      86.479136    
      2740   86.564606      158.5          158.5          158.5         -0.91223769    -3.7271513      0.51898794     0.47145024     86.564606    
      2760   80.050387      158.5          158.5          158.5         -2.2857291     -4.5114439     -1.1499952     -1.1957482      80.050387    
      2780   83.511337      158.5          158.5          158.5         -1.8428069     -0.22374587    -4.5219775     -0.78269732     83.511337    
      2800   85.75676       158.5          158.5          158.5         -0.42338777    -0.25171217    -2.840216       1.8217649      85.75676     
      2820   83.428203      158.5          158.5          158.5         -0.080563257   -2.7514548      1.4368813      1.0728838      83.428203    
      2840   77.993652      158.5          158.5          158.5         -0.33581548     0.52633628    -0.94827446    -0.58550828     77.993652    
      2860   92.368734      158.5          158.5          158.5          0.86372248     3.872475      -2.0657612      0.78445365     92.368734    
      2880   81.719486      158.5          158.5          158.5          1.9705811      2.3381637      0.63238395     2.9411958      81.719486    
      2900   86.991644      158.5          158.5          158.5          0.59833472    -1.4068432      1.1700854      2.031762       86.991644    
      2920   91.380189      158.5          158.5          158.5          0.76628028     1.8990779      0.27502681     0.1247361      91.380189    
      2940   94.012881      158.5          158.5          158.5          3.2752078      7.0323236      1.1705121      1.6227876      94.012881    
      2960   89.340889      158.5          158.5          158.5          2.0796095      2.5455878      0.86465555     2.8285851      89.340889    
      2980   86.606904      158.5          158.5          158.5          2.3205257      1.5437509      3.4341309      1.9836954      86.606904    
      3000   91.174942      158.5          158.5          158.5          3.6110139      7.4113934      3.7108277     -0.28917938     91.174942    
      3020   97.58542       158.5          158.5          158.5          0.23621752     1.8216677     -0.013003157   -1.100012       97.58542     
      3040   90.72512       158.5          158.5          158.5          0.61003819    -0.17001695     2.5040959     -0.50396436     90.72512     
      3060   87.385071      158.5          158.5          158.5          1.8566436      1.258324       3.1007458      1.2108608      87.385071    
      3080   89.180321      158.5          158.5          158.5         -1.7318816     -2.1201654     -1.9900699     -1.0854096      89.180321    
      3100   85.55669       158.5          158.5          158.5          0.24623262    -0.35609284     2.6042196     -1.5094289      85.55669     
      3120   86.896414      158.5          158.5          158.5          1.6818896      3.007649       2.9301014     -0.89208164     86.896414    
      3140   84.266738      158.5          158.5          158.5         -1.2341349     -1.9404628     -1.2823584     -0.47958361     84.266738    
      3160   95.228015      158.5          158.5          158.5          0.58594922    -0.97494669     0.82612944     1.9066649      95.228015    
      3180   79.792146      158.5          158.5          158.5          0.72863845     0.94621204     0.83091778     0.40878552     79.792146    
      3200   84.128592      158.5          158.5          158.5         -1.3345887     -1.0448147     -2.4545935     -0.5043578      84.128592    
      3220   84.063499      158.5          158.5          158.5         -0.025799849   -2.7891136     -0.63322319     3.3449373      84.063499    
      3240   84.822569      158.5          158.5          158.5         -1.079357      -2.4675395     -1.3214137      0.55088237     84.822569    
      3260   79.204793      158.5          158.5          158.5         -1.2150703      0.67185436    -3.0236238     -1.2934415      79.204793    
      3280   87.031071      158.5          158.5          158.5          0.22677524    -0.31266309    -0.99985422     1.992843       87.031071    
      3300   85.84104       158.5          158.5          158.5         -1.6508344     -3.7460264     -2.3096226      1.1031458      85.84104     
      3320   92.341099      158.5          158.5          158.5         -2.531023      -1.6105839     -3.1648386     -2.8176467      92.341099    
      3340   93.163588      158.5          158.5          158.5          0.49116605     2.3150368     -0.12540443    -0.71613418     93.163588    
      3360   98.06873       158.5          158.5          158.5         -1.026405      -1.2487557      0.24832332    -2.0787826      98.06873     
      3380   94.998384      158.5          158.5          158.5         -1.1373826     -2.641543      -0.64250809    -0.12809665     94.998384    
      3400   84.4244        158.5          158.5          158.5          2.5590812      3.4556488      2.045024       2.1765708      84.4244      
      3420   93.007281      158.5          158.5          158.5         -0.41066033     3.0225864     -1.0592139     -3.1953535      93.007281    
      3440   104.87656      158.5          158.5          158.5         -2.1418292     -0.8525973     -2.2238669     -3.3490236      104.87656    
      3460   93.897768      158.5          158.5          158.5          2.2571695     -0.11702536     3.1912911      3.6972428      93.897768    
      3480   98.886926      158.5          158.5          158.5         -1.5703711     -3.4713202      1.9302629     -3.1700558      98.886926    
      3500   96.81806       158.5          158.5          158.5         -2.4395634     -0.71964451    -1.217371      -5.3816748      96.81806     
      3520   100.85824      158.5          158.5          158.5          3.0782665      3.5862575      1.6369225      4.0116196      100.85824    
      3540   84.570696      158.5          158.5          158.5         -0.74277518    -4.6702148      3.7325755     -1.2906862      84.570696    
      3560   93.550999      158.5          158.5          158.5         -1.8719149     -4.2194797      3.3997978     -4.7960629      93.550999    
      3580   90.16473       158.5          158.5          158.5          3.9278015      5.817834       3.1296447      2.8359257      90.16473     
      3600   92.330979      158.5          158.5          158.5         -1.1563961     -3.0205655      0.64363108    -1.0922538      92.330979    
      3620   96.578928      158.5          158.5          158.5         -2.1545951     -7.3831058      0.73691227     0.18240823     96.578928    
      3640   94.869418      158.5          158.5          158.5          3.2587477      1.2195961      3.4503548      5.1062923      94.869418    
      3660   84.752511      158.5          158.5          158.5          0.31426821     1.8677514     -0.89202432    -0.032922435    84.752511    
      3680   97.158294      158.5          158.5          158.5         -0.87470155    -0.40690659    -3.650076       1.4328779      97.158294    
      3700   90.372487      158.5          158.5          158.5          3.8316243      1.7519169      3.1238006      6.6191555      90.372487    
      3720   88.18181       158.5          158.5          158.5          1.4580537      1.693573       1.1723045      1.5082834      88.18181     
      3740   89.197623      158.5          158.5          158.5          0.071911606    2.5575778     -3.9035478      1.5617049      89.197623    
      3760   96.145693      158.5          158.5          158.5          4.4935342      5.0330433      0.22210068     8.2254586      96.145693    
      3780   96.653692      158.5          158.5          158.5          0.87619712    -1.0071528      2.7773961      0.85834808     96.653692    
      3800   87.704318      158.5          158.5          158.5         -0.70988779    -0.19579259    -0.43347452    -1.5003962      87.704318    
      3820   94.594005      158.5          158.5          158.5          3.5429455      7.3906514     -1.7501749      4.98836        94.594005    
      3840   88.977209      158.5          158.5          158.5          0.44535436     3.8935767     -2.5746535      0.017139891    88.977209    
      3860   102.71403      158.5          158.5          158.5         -1.0813645     -1.8687869     -1.1916374     -0.18366915     102.71403    
      3880   106.61139      158.5          158.5          158.5          2.4343819      4.3100943      0.82176518     2.1712862      106.61139    
      3900   102.97731      158.5          158.5          158.5          0.04994279     6.1686894     -0.8511736     -5.1676875      102.97731    
      3920   101.51781      158.5          158.5          158.5         -0.63723802     0.46126261     0.27991048    -2.6528872      101.51781    
      3940   97.883014      158.5          158.5          158.5          1.6249227      2.0037496      2.0057242      0.86529424     97.883014    
      3960   110.90825      158.5          158.5          158.5         -0.60488973     1.5966697     -0.33209355    -3.0792454      110.90825    
      3980   96.831144      158.5          158.5          158.5         -0.77544946    -1.1157856     -0.02509756    -1.1854652      96.831144    
      4000   106.51627      158.5          158.5          158.5         -0.41795528    -0.40653572    -0.68431605    -0.16301407     106.51627    
      4020   103.64287      158.5          158.5          158.5         -1.296844      -0.57907463    -1.2626975     -2.04876        103.64287    
      4040   87.850419      158.5          158.5          158.5         -1.796158      -5.8500454      0.35057571     0.11099576     87.850419    
      4060   95.855979      158.5          158.5          158.5         -0.99772046    -2.4462978      0.33502322    -0.88188686     95.855979    
      4080   92.11659       158.5          158.5          158.5         -0.77007988    -1.9708466      2.1591255     -2.4985185      92.11659     
      4100   104.21123      158.5          158.5          158.5         -2.5950351     -7.4977858      1.6580855     -1.945405       104.21123    
      4120   98.49122       158.5          158.5          158.5          0.1383605     -3.8203741      1.9056445      2.3298111      98.49122     
      4140   88.813158      158.5          158.5          158.5         -0.12474922    -0.9286612      1.6377322     -1.0833187      88.813158    
      4160   96.67853       158.5          158.5          158.5         -2.7754243     -5.0109127      0.4046487     -3.720009       96.67853     
      4180   100.56338      158.5          158.5          158.5          0.21835961    -2.1832556      0.077136622    2.7611978      100.56338    
      4200   97.358736      158.5          158.5          158.5         -0.25436196    -2.0499609     -0.88034171     2.1672167      97.358736    
      4220   81.747226      158.5          158.5          158.5         -1.4351583     -2.2264234     -0.50433516    -1.5747165      81.747226    
      4240   92.343784      158.5          158.5          158.5          1.8514127      4.1331533      1.2925384      0.12854628     92.343784    
      4260   87.586042      158.5          158.5          158.5          2.6927717      3.1169146      3.1038263      1.8575741      87.586042    
      4280   91.732375      158.5          158.5          158.5          0.36511336    -1.2377643      0.74828818     1.5848162      91.732375    
      4300   90.696211      158.5          158.5          158.5          2.447796       4.7987978     -0.38316341     2.9277536      90.696211    
      4320   89.551293      158.5          158.5          158.5          3.5603865      6.854886       3.1444581      0.68181526     89.551293    
      4340   87.255064      158.5          158.5          158.5         -0.34054365     0.18113235     0.79389394    -1.9966572      87.255064    
      4360   88.809061      158.5          158.5          158.5          0.74308751     1.4826916     -1.2238465      1.9704174      88.809061    
      4380   86.388874      158.5          158.5          158.5          3.7911482      6.0986953      2.5341555      2.7405937      86.388874    
      4400   80.248108      158.5          158.5          158.5         -0.52036568     2.2479398     -2.0811144     -1.7279225      80.248108    
      4420   95.766616      158.5          158.5          158.5         -0.065317442   -0.11019393    -1.3439769      1.2582185      95.766616    
      4440   82.620046      158.5          158.5          158.5          2.287582       0.58740129     1.7032464      4.5720982      82.620046    
      4460   78.870543      158.5          158.5          158.5         -2.3644897     -1.7978514     -3.5706822     -1.7249354      78.870543    
      4480   82.262056      158.5          158.5          158.5         -0.98640579     0.11323233    -1.9858442     -1.0866055      82.262056    
      4500   78.374186      158.5          158.5          158.5          0.72229364    -0.72341816     2.342259       0.54804012     78.374186    
      4520   78.427479      158.5          158.5          158.5         -2.2792471     -5.8442339     -0.40200381    -0.59150367     78.427479    
      4540   77.999963      158.5          158.5          158.5          0.61328758    -0.99056199     1.9589709      0.87145382     77.999963    
      4560   76.001998      158.5          158.5          158.5         -0.069768739    1.4328951      2.118823      -3.7610243      76.001998    
      4580   83.283524      158.5          158.5          158.5         -3.541184      -4.9453966      0.11598132    -5.7941366      83.283524    
      4600   79.382571      158.5          158.5          158.5         -0.75398835    -3.8618184     -0.21393269     1.8137861      79.382571    
      4620   86.349701      158.5          158.5          158.5         -2.5213278     -2.171873      -3.3087911     -2.0833192      86.349701    
      4640   89.132848      158.5          158.5          158.5         -4.7826249     -2.0784784     -7.0834779     -5.1859185      89.132848    
      4660   79.554836      158.5          158.5          158.5         -0.77432152    -2.4223276     -2.4332443      2.5326074      79.554836    
      4680   92.053935      158.5          158.5          158.5         -2.5129996     -5.4693122     -3.552463       1.4827765      92.053935    
      4700   86.437699      158.5          158.5          158.5         -3.9079385     -2.5595467     -6.7278039     -2.436465       86.437699    
      4720   91.679127      158.5          158.5          158.5          1.9812234      5.8690779     -1.6487057      1.7232981      91.679127    
      4740   84.321059      158.5          158.5          158.5          0.41217754     0.062850138    0.92496695     0.24871553     84.321059    
      4760   86.755379      158.5          158.5          158.5         -2.8712743     -4.409618      -2.6514734     -1.5527315      86.755379    
      4780   99.679437      158.5          158.5          158.5          3.5812158      6.7667083      1.1748812      2.8020579      99.679437    
      4800   92.68718       158.5          158.5          158.5          1.4789195      5.6705457     -1.3282269      0.094439819    92.68718     
      4820   96.801868      158.5          158.5          158.5         -2.6507841     -1.8069502     -2.5446354     -3.6007666      96.801868    
      4840   95.407403      158.5          158.5          158.5          5.2615741      4.0257363      6.4082555      5.3507304      95.407403    
      4860   84.726901      158.5          158.5          158.5          2.6080607      4.4752652      0.91090032     2.4380166      84.726901    
      4880   101.44942      158.5          158.5          158.5         -0.73600028     0.5548686     -3.0489829      0.28611345     101.44942    
      4900   90.427937      158.5          158.5          158.5          6.5898249      3.2367558      8.1675605      8.3651583      90.427937    
      4920   101.99694      158.5          158.5          158.5          2.1247089     -2.1937273      6.3277334      2.2401206      101.99694    
      4940   103.91739      158.5          158.5          158.5          0.87554579     0.33941955     1.7707408      0.51647699     103.91739    
      4960   91.628695      158.5          158.5          158.5          5.7603202      4.7862971      6.55864        5.9360236      91.628695    
      4980   100.64977      158.5          158.5          158.5          1.2954745     -1.0616157      4.9783642     -0.030324958    100.64977    
      5000   101.86546      158.5          158.5          158.5          0.072498296   -1.2989093      3.6903122     -2.173908       101.86546    
      5020   94.791827      158.5          158.5          158.5          4.3950169      5.6674197      3.7357651      3.7818658      94.791827    
      5040   98.370555      158.5          158.5          158.5          0.01886664     1.1879813     -2.3772717      1.2458903      98.370555    
      5060   91.984003      158.5          158.5          158.5         -2.4157122     -2.065214      -2.3257774     -2.8561453      91.984003    
      5080   97.587076      158.5          158.5          158.5          1.6674477      1.1273893      3.6882016      0.18675221     97.587076    
      5100   87.992574      158.5          158.5          158.5         -1.5502862      0.68266997    -2.2757051     -3.0578235      87.992574    
      5120   105.07976      158.5          158.5          158.5         -3.2605908     -1.9654581     -3.5011387     -4.3151755      105.07976    
      5140   100.00012      158.5          158.5          158.5          0.65733003    -0.87005203     1.8606691      0.98137302     100.00012    
      5160   96.04231       158.5          158.5          158.5         -2.3819444     -1.5910093     -1.2536833     -4.3011408      96.04231     
      5180   85.2225        158.5          158.5          158.5         -1.7604207      0.1843394     -1.8713192     -3.5942822      85.2225      
      5200   84.272828      158.5          158.5          158.5          0.41166024     1.2229933     -1.1813854      1.1933729      84.272828    
      5220   98.200162      158.5          158.5          158.5         -3.483441      -4.569577      -3.4477356     -2.4330102      98.200162    
      5240   95.444064      158.5          158.5          158.5         -1.6469457     -1.0324623     -2.1707528     -1.737622       95.444064    
      5260   82.620602      158.5          158.5          158.5          0.39191344     2.2233979     -1.7429691      0.69531156     82.620602    
      5280   86.542342      158.5          158.5          158.5         -2.5885487     -3.7902348     -2.8316394     -1.1437718      86.542342    
      5300   87.215387      158.5          158.5          158.5         -0.63783683    -1.053796      -0.28765003    -0.5720645      87.215387    
      5320   81.275709      158.5          158.5          158.5          1.508931       2.8539331      1.6102762      0.062583646    81.275709    
      5340   86.462028      158.5          158.5          158.5         -1.2032514     -1.6316234     -0.89689848    -1.0812322      86.462028    
      5360   91.017977      158.5          158.5          158.5         -1.4534538     -3.8208437     -1.2114586      0.67194077     91.017977    
      5380   91.838803      158.5          158.5          158.5          1.5592756      1.5304814      2.4128468      0.73449863     91.838803    
      5400   94.07693       158.5          158.5          158.5         -0.10052793     0.52453862     1.1148024     -1.9409248      94.07693     
      5420   85.109051      158.5          158.5          158.5         -1.7183636     -3.1301459     -2.4118017      0.38685682     85.109051    
      5440   90.226421      158.5          158.5          158.5          1.8188068      0.37285989     1.5978334      3.4857271      90.226421    
      5460   90.354796      158.5          158.5          158.5          0.046025194    1.8646413     -0.59856143    -1.1280043      90.354796    
      5480   97.999769      158.5          158.5          158.5         -4.0362672     -2.1836213     -6.0277288     -3.8974514      97.999769    
      5500   91.280577      158.5          158.5          158.5          1.77884        1.7055036      0.72905659     2.9019598      91.280577    
      5520   96.467824      158.5          158.5          158.5          1.4132519     -0.69241029     1.3425044      3.5896618      96.467824    
      5540   105.17974      158.5          158.5          158.5         -3.1043147     -3.391716      -5.8916667     -0.029561307    105.17974    
      5560   99.816629      158.5          158.5          158.5          1.4617967      2.5201835     -0.099996818    1.9652035      99.816629    
      5580   95.657779      158.5          158.5          158.5          1.7094423      0.28257591     2.1154369      2.7303141      95.657779    
      5600   105.91764      158.5          158.5          158.5         -3.1854067     -5.1017202     -5.4851814      1.0306815      105.91764    
      5620   96.242679      158.5          158.5          158.5          0.19887537    -0.10004405     1.9040833     -1.2074131      96.242679    
      5640   91.611166      158.5          158.5          158.5          1.2898908      3.2861674      2.4905785     -1.9070733      91.611166    
      5660   94.699401      158.5          158.5          158.5         -3.3350415     -4.301979      -3.6997335     -2.0034121      94.699401    
      5680   96.387453      158.5          158.5          158.5          0.44122734     0.80383284     1.5621916     -1.0423424      96.387453    
      5700   99.218114      158.5          158.5          158.5          1.3333083      3.7376127      2.6891127     -2.4268005      99.218114    
      5720   90.80326       158.5          158.5          158.5         -2.5644563     -2.1346152     -3.2027594     -2.3559944      90.80326     
      5740   91.134192      158.5          158.5          158.5          1.2005155      1.4815893      0.083282717    2.0366745      91.134192    
      5760   91.153783      158.5          158.5          158.5          2.7031288      3.8767919      2.7379191      1.4946754      91.153783    
      5780   97.196323      158.5          158.5          158.5         -0.64135217     1.4996547     -2.3794215     -1.0442897      97.196323    
      5800   98.133327      158.5          158.5          158.5          2.1441038      2.3554175      2.8348062      1.2420875      98.133327    
      5820   92.214198      158.5          158.5          158.5          4.490022       3.3409845      6.2443474      3.8847342      92.214198    
      5840   90.733919      158.5          158.5          158.5          2.3582942      1.9479059      1.0641969      4.0627799      90.733919    
      5860   86.517783      158.5          158.5          158.5          2.832767       3.6595916      2.5438267      2.2948827      86.517783    
      5880   89.772736      158.5          158.5          158.5          3.3063021      1.8418239      5.6456806      2.4314017      89.772736    
      5900   93.490205      158.5          158.5          158.5          0.72193584    -0.70639435     1.3209605      1.5512413      93.490205    
      5920   86.281907      158.5          158.5          158.5          0.68233904    -0.24791041     2.0196431      0.27528442     86.281907    
      5940   87.208762      158.5          158.5          158.5          1.1936911      1.2796454      1.5540294      0.74739838     87.208762    
      5960   100.31305      158.5          158.5          158.5         -0.41202652     0.92486748    -2.4384956      0.27754858     100.31305    
      5980   82.301891      158.5          158.5          158.5         -0.66879662    -0.24262452     0.60148138    -2.3652467      82.301891    
      6000   83.293697      158.5          158.5          158.5          0.35701373    -0.42158151     1.2139381      0.27868461     83.293697    
      6020   94.191775      158.5          158.5          158.5         -0.44932882     1.568243      -5.5982433      2.6820138      94.191775    
      6040   86.107081      158.5          158.5          158.5          0.12999803     1.6934404     -0.98908117    -0.31436515     86.107081    
      6060   91.075402      158.5          158.5          158.5         -0.35757223    -2.1613097      1.2289051     -0.14031212     91.075402    
      6080   90.382343      158.5          158.5          158.5         -1.765336       0.84867586    -6.2138125      0.069128533    90.382343    
      6100   98.353155      158.5          158.5          158.5         -1.0530669      1.8411257     -3.160233      -1.8400934      98.353155    
      6120   90.06929       158.5          158.5          158.5         -2.4116252     -5.7147202      0.28248465    -1.8026402      90.06929     
      6140   97.189149      158.5          158.5          158.5         -4.2203352     -5.6996198     -3.3030274     -3.6583584      97.189149    
      6160   92.585101      158.5          158.5          158.5         -1.0495752      0.33903372    -1.5135632     -1.9741962      92.585101    
      6180   89.822279      158.5          158.5          158.5         -1.2960351     -2.4721417     -1.2343367     -0.18162695     89.822279    
      6200   103.51546      158.5          158.5          158.5         -3.9845557     -4.3978439     -3.2391139     -4.3167093      103.51546    
      6220   99.263636      158.5          158.5          158.5          0.097039523    0.77260131    -0.24604096    -0.23544178     99.263636    
      6240   94.216927      158.5          158.5          158.5          1.6157529      0.49961994    -0.77677025     5.1244089      94.216927    
      6260   94.517512      158.5          158.5          158.5         -1.3560542      0.34144424    -2.3233109     -2.0862959      94.517512    
      6280   95.784693      158.5          158.5          158.5          1.4007167      3.6525486      1.7091895     -1.1595881      95.784693    
      6300   101.70211      158.5          158.5          158.5          1.3794247      0.92113706    -0.44172064     3.6588576      101.70211    
      6320   89.020641      158.5          158.5          158.5         -1.0761245     -1.5406749     -0.66760979    -1.0200888      89.020641    
      6340   87.942205      158.5          158.5          158.5          1.851737       5.0062773      1.7341235     -1.1851899      87.942205    
      6360   97.34206       158.5          158.5          158.5          0.68683182     2.5598181      0.42256265    -0.92188527     97.34206     
      6380   87.538613      158.5          158.5          158.5         -1.9098285     -3.2639848     -0.60043689    -1.8650638      87.538613    
      6400   87.348832      158.5          158.5          158.5         -0.46208208    -0.22116024    -0.10481249    -1.0602735      87.348832    
      6420   91.775251      158.5          158.5          158.5         -0.50934669     0.59325043    -2.4131878      0.2918973      91.775251    
      6440   92.548072      158.5          158.5          158.5         -1.4399962     -2.6213238     -0.63206629    -1.0665984      92.548072    
      6460   82.856032      158.5          158.5          158.5          1.5158073     -1.2964424      3.5406213      2.3032429      82.856032    
      6480   82.704224      158.5          158.5          158.5          2.5356229      2.6486942      2.4488551      2.5093193      82.704224    
      6500   93.334386      158.5          158.5          158.5          1.0995465      3.2324615      0.94951356    -0.88333559     93.334386    
      6520   93.369673      158.5          158.5          158.5          2.3300009      0.8947442      3.6921091      2.4031495      93.369673    
      6540   96.578602      158.5          158.5          158.5          1.4908252     -0.15547927     2.5904864      2.0374683      96.578602    
      6560   81.249181      158.5          158.5          158.5          1.4000173      3.1808252      0.26951983     0.74970693     81.249181    
      6580   89.63416       158.5          158.5          158.5          1.358242       4.3891298     -1.0827136      0.76830988     89.63416     
      6600   92.47495       158.5          158.5          158.5          0.58760564     2.8361201     -1.1985854      0.12528217     92.47495     
      6620   95.842494      158.5          158.5          158.5         -0.64594115     0.87824176    -2.7906057     -0.025459551    95.842494    
      6640   89.438393      158.5          158.5          158.5         -0.38255247     0.079039204   -3.3917584      2.1650618      89.438393    
      6660   86.535997      158.5          158.5          158.5         -0.31301601    -0.31265778    -3.2610915      2.6347012      86.535997    
      6680   91.718106      158.5          158.5          158.5         -1.3475135      0.85891128    -3.5676007     -1.333851       91.718106    
      6700   86.629418      158.5          158.5          158.5         -0.22574492    -0.77310111    -1.7820288      1.8778951      86.629418    
      6720   101.82059      158.5          158.5          158.5         -0.53994206    -2.8921354     -1.2334514      2.5057606      101.82059    
      6740   81.198608      158.5          158.5          158.5         -1.5747422     -0.35677824    -1.8943039     -2.4731443      81.198608    
      6760   96.326964      158.5          158.5          158.5         -0.40778015    -1.327585      -0.74317707     0.84742164     96.326964    
      6780   89.249835      158.5          158.5          158.5          0.33315468    -2.8236011      2.2857252      1.5373399      89.249835    
      6800   92.416144      158.5          158.5          158.5         -1.6565177     -1.5844258      0.75739388    -4.1425212      92.416144    
      6820   92.720019      158.5          158.5          158.5         -1.3714622      0.48133471    -0.72183172    -3.8738895      92.720019    
      6840   99.442525      158.5          158.5          158.5         -0.86826409     0.7640041      0.69365073    -4.0624471      99.442525    
      6860   89.716154      158.5          158.5          158.5         -1.811337      -1.4264402     -1.1376561     -2.8699146      89.716154    
      6880   92.19651       158.5          158.5          158.5         -2.0396644     -2.7861726     -1.4893888     -1.8434319      92.19651     
      6900   87.837938      158.5          158.5          158.5          2.1107069      2.1304838      3.8104722      0.39116456     87.837938    
      6920   87.802954      158.5          158.5          158.5          1.542843       1.8922439      2.5647959      0.17148906     87.802954    
      6940   90.137537      158.5          158.5          158.5         -0.5220187     -1.3958442      0.077355244   -0.24756709     90.137537    
      6960   92.280105      158.5          158.5          158.5          3.4813085      2.6506683      2.7490519      5.0442054      92.280105    
      6980   90.510757      158.5          158.5          158.5         -0.0054231345   0.49021551    -0.70881266     0.20232775     90.510757    
      7000   96.845603      158.5          158.5          158.5         -3.2897873     -2.250936      -4.1280598     -3.4903662      96.845603    
      7020   93.83462       158.5          158.5          158.5          1.4139012      1.2206282      0.19571834     2.825357       93.83462     
      7040   87.242403      158.5          158.5          158.5         -1.6284025     -2.2429945     -3.206487       0.56427381     87.242403    
      7060   92.01087       158.5          158.5          158.5         -2.4663217     -2.0462141     -2.3588225     -2.9939285      92.01087     
      7080   86.027558      158.5          158.5          158.5          2.3603674      2.7445738      0.95295571     3.3835727      86.027558    
      7100   85.861219      158.5          158.5          158.5         -0.9989623     -0.22134138    -3.5116476      0.73610211     85.861219    
      7120   83.040277      158.5          158.5          158.5         -0.52992378    -1.0003543     -0.76287436     0.17345727     83.040277    
      7140   75.911495      158.5          158.5          158.5          3.8629516      3.6879673      4.032868       3.8680197      75.911495    
      7160   87.948905      158.5          158.5          158.5          0.15757613     1.6271549      0.44257807    -1.5970046      87.948905    
      7180   84.235115      158.5          158.5          158.5          0.81105686     0.089349653    1.0266092      1.3172118      84.235115    
      7200   85.919461      158.5          158.5          158.5          2.3810206     -0.44046526     2.9623044      4.6212227      85.919461    
      7220   83.440377      158.5          158.5          158.5          0.16055815     0.66843159     1.4524394     -1.6391966      83.440377    
      7240   89.518966      158.5          158.5          158.5          1.0505066      2.0990182      2.8544013     -1.8018998      89.518966    
      7260   90.556526      158.5          158.5          158.5          1.841821       1.1272287      2.151311       2.2469233      90.556526    
      7280   82.234319      158.5          158.5          158.5          1.5828061      1.7829271      0.92577293     2.0397183      82.234319    
      7300   91.444414      158.5          158.5          158.5          2.0004851      5.0070884      2.2116387     -1.2172719      91.444414    
      7320   86.721938      158.5          158.5          158.5          1.3069958      4.2816228      1.083282      -1.4439173      86.721938    
      7340   87.752768      158.5          158.5          158.5          1.0191601      1.1234161     -1.3687597      3.3028237      87.752768    
      7360   95.635807      158.5          158.5          158.5          2.2283218      3.0094813      3.0918149      0.58366924     95.635807    
      7380   92.317397      158.5          158.5          158.5          0.32465521     2.6112372      1.5338846     -3.1711562      92.317397    
      7400   100.07381      158.5          158.5          158.5         -0.23696612     1.8818749     -2.8494428      0.25666959     100.07381    
      7420   97.200502      158.5          158.5          158.5          0.78928083    -1.728467      -0.0057540553   4.1020636      97.200502    
      7440   95.947475      158.5          158.5          158.5         -1.281803      -4.7608843     -0.7478091      1.6632845      95.947475    
      7460   93.39659       158.5          158.5          158.5         -2.1975538     -0.31108895    -3.8706046     -2.4109678      93.39659     
      7480   101.9073       158.5          158.5          158.5         -1.9354008      0.32198433    -1.6713049     -4.4568818      101.9073     
      7500   98.505818      158.5          158.5          158.5         -2.3388664     -1.7492256     -3.8417324     -1.4256411      98.505818    
      7520   92.274238      158.5          158.5          158.5         -1.682419      -2.2520711     -1.8117084     -0.98347768     92.274238    
      7540   91.316917      158.5          158.5          158.5         -2.5496041     -1.5151694     -0.038441888   -6.0952011      91.316917    
      7560   101.98111      158.5          158.5          158.5         -2.434598      -1.4550058     -1.9814375     -3.8673509      101.98111    
      7580   89.684978      158.5          158.5          158.5         -0.65633125    -1.6731988     -2.5404828      2.2446879      89.684978    
      7600   88.466734      158.5          158.5          158.5         -1.9554145     -4.3628489     -0.46343614    -1.0399585      88.466734    
      7620   93.984638      158.5          158.5          158.5         -0.66558715    -0.5217183      1.3443741     -2.8194173      93.984638    
      7640   91.837523      158.5          158.5          158.5          0.67411702     1.3192728     -0.79208326     1.4951615      91.837523    
      7660   84.697399      158.5          158.5          158.5         -2.3687455     -4.5986667     -2.2359943     -0.27157538     84.697399    
      7680   82.348581      158.5          158.5          158.5         -0.40508087    -2.7087521      0.78868304     0.70482639     82.348581    
      7700   85.06727       158.5          158.5          158.5          0.44558865     1.3231777      0.23336749    -0.21977926     85.06727     
      7720   87.505344      158.5          158.5          158.5         -2.698869      -3.3309598     -3.3286322     -1.437015       87.505344    
      7740   79.85467       158.5          158.5          158.5         -0.42078182    -1.4787861     -2.4876188      2.7040594      79.85467     
      7760   84.290832      158.5          158.5          158.5          1.1842301      2.0463928     -0.1137562      1.6200536      84.290832    
      7780   91.265894      158.5          158.5          158.5         -0.92731728     0.24886137    -0.46079386    -2.5700193      91.265894    
      7800   77.441808      158.5          158.5          158.5          0.28589427     3.2077996     -2.6160438      0.26592697     77.441808    
      7820   93.40956       158.5          158.5          158.5          2.9058895      3.6403414      2.6372446      2.4400823      93.40956     
      7840   82.558744      158.5          158.5          158.5         -0.052700641    0.04578948     0.94657297    -1.1504644      82.558744    
      7860   93.863777      158.5          158.5          158.5         -1.8816385      0.93454629    -3.6948358     -2.8846259      93.863777    
      7880   84.662522      158.5          158.5          158.5          2.7674126      6.9302521      2.3401089     -0.96812334     84.662522    
      7900   96.904238      158.5          158.5          158.5         -1.709466      -1.9824351      0.084839951   -3.2308029      96.904238    
      7920   99.644191      158.5          158.5          158.5         -0.75697763    -2.0721099     -2.9134715      2.7146485      99.644191    
      7940   94.0767        158.5          158.5          158.5          4.8925489      5.5624957      3.6351068      5.4800442      94.0767      
      7960   93.291138      158.5          158.5          158.5         -0.84984601    -0.72282703     0.17330194    -2.000013       93.291138    
      7980   108.24921      158.5          158.5          158.5          1.3596154     -0.56830443    -0.36573991     5.0128904      108.24921    
      8000   95.337375      158.5          158.5          158.5          3.7740687      1.1753343      2.9001736      7.2466981      95.337375    
      8020   91.397137      158.5          158.5          158.5         -2.2625822     -1.8773744     -1.1071074     -3.8032649      91.397137    
      8040   98.137896      158.5          158.5          158.5          1.2366342      4.3888175      0.80243538    -1.4813503      98.137896    
      8060   95.299907      158.5          158.5          158.5          1.0313271      0.77354247     0.55177339     1.7686653      95.299907    
      8080   96.386209      158.5          158.5          158.5         -3.2150758     -6.1353681     -2.2759328     -1.2339264      96.386209    
      8100   86.058537      158.5          158.5          158.5          0.78090764     1.8026254     -1.0791654      1.6192629      86.058537    
      8120   100.95219      158.5          158.5          158.5         -0.37176961     0.43540935    -0.63573993    -0.91497826     100.95219    
      8140   89.265452      158.5          158.5          158.5         -2.4815091     -7.2610484     -1.2801239      1.0966451      89.265452    
      8160   82.343619      158.5          158.5          158.5          1.7487698     -0.91175276     1.6857798      4.4722825      82.343619    
      8180   88.433178      158.5          158.5          158.5          0.69053808     2.9133886      0.59099091    -1.4327653      88.433178    
      8200   90.188165      158.5          158.5          158.5         -2.3396314     -0.48089187    -1.5476278     -4.9903745      90.188165    
      8220   95.296227      158.5          158.5          158.5          1.7992315      0.50259821     2.2004308      2.6946656      95.296227    
      8240   85.543961      158.5          158.5          158.5          1.2758444      2.0780492      1.5001163      0.24936761     85.543961    
      8260   92.216973      158.5          158.5          158.5         -2.3524268      1.090799      -3.1846573     -4.9634221      92.216973    
      8280   88.58753       158.5          158.5          158.5          3.0777371      4.6018369      2.929323       1.7020515      88.58753     
      8300   85.6057        158.5          158.5          158.5          1.9302268      0.8294621      1.0767642      3.8844541      85.6057      
      8320   88.507252      158.5          158.5          158.5         -2.1583874     -1.7936352     -2.9212542     -1.7602728      88.507252    
      8340   81.23754       158.5          158.5          158.5          3.1515062      5.5454239      1.0440713      2.8650234      81.23754     
      8360   90.775264      158.5          158.5          158.5          0.2173645      0.48154839    -1.2489619      1.419507       90.775264    
      8380   90.178509      158.5          158.5          158.5         -3.6694952     -4.6022651     -3.5163191     -2.8899014      90.178509    
      8400   84.003767      158.5          158.5          158.5          2.549905       1.7505362      2.213434       3.6857447      84.003767    
      8420   94.301425      158.5          158.5          158.5         -0.69018679     0.77199354    -2.0198522     -0.82270172     94.301425    
      8440   94.686599      158.5          158.5          158.5         -3.2465521     -2.464399      -0.53209764    -6.7431598      94.686599    
      8460   91.545576      158.5          158.5          158.5          2.7176978     -0.72294135     3.8984567      4.977578       91.545576    
      8480   91.804136      158.5          158.5          158.5         -0.53503688    -2.4277073     -1.8710805      2.6936771      91.804136    
      8500   96.295815      158.5          158.5          158.5         -1.0365314     -2.059258       1.5929059     -2.6432419      96.295815    
      8520   97.267498      158.5          158.5          158.5          2.2476476     -0.75914339     3.7294587      3.7726274      97.267498    
      8540   102.48001      158.5          158.5          158.5         -1.5179153     -3.9134051     -2.7587964      2.1184556      102.48001    
      8560   97.622648      158.5          158.5          158.5         -2.1744118     -3.0453551     -0.27769071    -3.2001896      97.622648    
      8580   99.408854      158.5          158.5          158.5         -0.63006171    -2.2250514      1.3546701     -1.0198038      99.408854    
      8600   101.43024      158.5          158.5          158.5         -2.0203683     -2.4063964     -2.6850768     -0.96963181     101.43024    
      8620   96.270999      158.5          158.5          158.5         -2.3282157     -2.8920566     -0.76644281    -3.3261476      96.270999    
      8640   105.43024      158.5          158.5          158.5         -1.3080035     -0.73808346    -0.56059309    -2.6253341      105.43024    
      8660   103.06806      158.5          158.5          158.5         -1.2239078      0.76492681    -2.4685915     -1.9680587      103.06806    
      8680   91.003837      158.5          158.5          158.5         -0.85982031    -0.62915577     0.42264558    -2.3729507      91.003837    
      8700   89.778108      158.5          158.5          158.5          1.6250198      2.8953813      0.37230131     1.6073768      89.778108    
      8720   89.943481      158.5          158.5          158.5          1.5587278      1.4703         0.87259548     2.3332879      89.943481    
      8740   100.36216      158.5          158.5          158.5          1.6620083      1.6177776      2.4372621      0.93098506     100.36216    
      8760   89.088967      158.5          158.5          158.5          5.579367       7.9116342      4.0188206      4.8076463      89.088967    
      8780   88.554306      158.5          158.5          158.5          1.9742356      2.7784196      1.3313513      1.8129359      88.554306    
      8800   92.963764      158.5          158.5          158.5          2.1311733      1.5354426      3.6101868      1.2478904      92.963764    
      8820   87.227497      158.5          158.5          158.5          4.4363517      6.3654851      1.9195593      5.0240108      87.227497    
      8840   87.282433      158.5          158.5          158.5         -2.2089961      0.9835106     -6.2859554     -1.3245435      87.282433    
      8860   87.10769       158.5          158.5          158.5         -0.34026387    -0.66297923    -0.36122634     0.003413972    87.10769     
      8880   91.708487      158.5          158.5          158.5          1.8000848      0.58540279     3.4399634      1.3748881      91.708487    
      8900   91.435651      158.5          158.5          158.5         -3.0057898     -1.6478465     -3.2793399     -4.0901831      91.435651    
      8920   89.7755        158.5          158.5          158.5          0.12937991     0.85001875     0.61981044    -1.0816895      89.7755      
      8940   101.0286       158.5          158.5          158.5          0.59149757    -1.3683967      0.62690495     2.5159845      101.0286     
      8960   88.482399      158.5          158.5          158.5         -2.4671886     -3.0569676     -0.86357459    -3.4810236      88.482399    
      8980   88.823784      158.5          158.5          158.5         -0.16246736     0.93853954     1.6771931     -3.1031347      88.823784    
      9000   98.470994      158.5          158.5          158.5         -2.8633094     -3.3514074     -3.2598113     -1.9787096      98.470994    
      9020   90.040402      158.5          158.5          158.5         -1.344022      -1.9413647     -1.9303288     -0.1603725      90.040402    
      9040   95.257707      158.5          158.5          158.5         -0.76074325    -2.3645702      2.960141      -2.8778005      95.257707    
      9060   95.371181      158.5          158.5          158.5         -0.97110075    -1.0596347     -0.06910364    -1.7845639      95.371181    
      9080   95.670754      158.5          158.5          158.5          3.7841973      4.1655516      1.6119195      5.5751207      95.670754    
      9100   103.10039      158.5          158.5          158.5          2.1995646     -1.5109566      3.8928134      4.2168371      103.10039    
      9120   109.22794      158.5          158.5          158.5          1.1143026     -1.0280434      3.9481272      0.42282408     109.22794    
      9140   102.05212      158.5          158.5          158.5          3.0470317      4.3210562      1.8973959      2.9226432      102.05212    
      9160   108.64733      158.5          158.5          158.5         -1.7965946     -3.4455953     -1.845693      -0.098495375    108.64733    
      9180   119.92808      158.5          158.5          158.5         -2.9048669     -4.3107829     -2.02987       -2.3739479      119.92808    
      9200   112.68724      158.5          158.5          158.5          0.39202597     1.7305301      1.139728      -1.6941802      112.68724    
      9220   116.34902      158.5          158.5          158.5         -1.3548859      0.53627949    -1.1254286     -3.4755086      116.34902    
      9240   121.7858       158.5          158.5          158.5         -1.4412673      0.23815221    -1.9223139     -2.6396403      121.7858     
      9260   106.26323      158.5          158.5          158.5          3.0686941      3.0264226      3.1988947      2.980765       106.26323    
      9280   110.40424      158.5          158.5          158.5          0.39881577    -1.3892729      1.9349262      0.65079398     110.40424    
      9300   99.13339       158.5          158.5          158.5         -2.1468274     -1.2542658     -2.4631074     -2.723109       99.13339     
[...]
     97700   41.042724      158.5          158.5          158.5          0.53867419    -2.2574235     -0.45311813     4.3265642      41.042724    
     97720   34.921499      158.5          158.5          158.5          2.9776219      3.7149407      5.0555079      0.16241705     34.921499    
     97740   41.588334      158.5          158.5          158.5         -3.4138938     -1.0522723     -1.8191547     -7.3702544      41.588334    
     97760   39.552963      158.5          158.5          158.5          1.2538492      2.6430237     -0.20074883     1.3192728      39.552963    
     97780   39.120238      158.5          158.5          158.5         -0.16907435    -1.3673294     -0.20675451     1.0668608      39.120238    
     97800   28.726329      158.5          158.5          158.5         -0.7921093      1.7509843     -2.6642804     -1.4630318      28.726329    
     97820   39.653601      158.5          158.5          158.5          0.25630007     4.1065029     -2.1111118     -1.2264908      39.653601    
     97840   32.696835      158.5          158.5          158.5         -1.7491865     -3.4257342     -2.3555345      0.53370917     32.696835    
     97860   33.539126      158.5          158.5          158.5         -0.44947905     0.54947987    -4.8970937      2.9991767      33.539126    
     97880   30.7815        158.5          158.5          158.5         -2.0496978      0.70952603    -6.5015163     -0.35710308     30.7815      
     97900   25.519026      158.5          158.5          158.5         -1.1499234     -1.7244309     -2.2620194      0.53668005     25.519026    
     97920   37.571015      158.5          158.5          158.5         -2.216258      -0.40393476    -3.2747221     -2.9701172      37.571015    
     97940   33.444222      158.5          158.5          158.5          0.010351969   -0.39499473    -1.5896047      2.0156553      33.444222    
     97960   22.558582      158.5          158.5          158.5          0.49228085    -1.0159189      0.62116099     1.8716004      22.558582    
     97980   43.475889      158.5          158.5          158.5         -2.1714396     -1.8154967      1.7222247     -6.4210467      43.475889    
     98000   22.765822      158.5          158.5          158.5          3.466176       3.658848       5.0404442      1.6992357      22.765822    
     98020   42.570344      158.5          158.5          158.5         -0.89454243    -5.5663573     -0.060150043    2.94288        42.570344    
     98040   36.570363      158.5          158.5          158.5          0.24601919    -2.9048844      2.3367437      1.3061982      36.570363    
     98060   38.038858      158.5          158.5          158.5          3.1204544      4.3882786      5.0071738     -0.034089244    38.038858    
     98080   49.157195      158.5          158.5          158.5         -0.10912734     0.70831535     1.7061831     -2.7418805      49.157195    
     98100   47.479659      158.5          158.5          158.5          1.2279834     -0.69748222     2.0855463      2.2958862      47.479659    
     98120   36.426824      158.5          158.5          158.5         -0.68764611    -2.654519      -0.73063371     1.3222144      36.426824    
     98140   48.63498       158.5          158.5          158.5          1.8916652      0.86550039     3.1772446      1.6322506      48.63498     
     98160   39.058915      158.5          158.5          158.5          1.4006604      3.2135227      1.0526581     -0.064199478    39.058915    
     98180   53.075148      158.5          158.5          158.5          0.36940759    -1.0638368      0.049211267    2.1228483      53.075148    
     98200   36.289739      158.5          158.5          158.5          2.7011275      3.5056131      0.48061045     4.117159       36.289739    
     98220   35.109042      158.5          158.5          158.5         -0.30892719     4.872883      -1.5973564     -4.2023081      35.109042    
     98240   45.843437      158.5          158.5          158.5          2.0249534      1.8780158      3.6113319      0.58551244     45.843437    
     98260   38.94076       158.5          158.5          158.5         -2.3082265     -2.6319674     -3.6256018     -0.66711024     38.94076     
     98280   45.713725      158.5          158.5          158.5         -0.45728402    -0.045354598   -3.0352041      1.7087066      45.713725    
     98300   48.094422      158.5          158.5          158.5          1.8270575      3.6656332      2.0588052     -0.24326595     48.094422    
     98320   48.939432      158.5          158.5          158.5         -2.8506075     -1.1671116     -2.9687717     -4.4159392      48.939432    
     98340   47.263809      158.5          158.5          158.5          1.2758959      4.190912      -3.6720416      3.3088173      47.263809    
     98360   42.334594      158.5          158.5          158.5         -4.5369759     -5.7968514     -5.3242576     -2.4898187      42.334594    
     98380   38.935278      158.5          158.5          158.5         -1.863131      -3.2148231      0.70855667    -3.0831265      38.935278    
     98400   32.759678      158.5          158.5          158.5          2.6579754      4.931258       1.3866026      1.6560657      32.759678    
     98420   42.824319      158.5          158.5          158.5         -0.15151924    -0.086860756   -1.4371737      1.0694767      42.824319    
     98440   39.051696      158.5          158.5          158.5          3.6627653      0.74804663     4.432842       5.8074074      39.051696    
     98460   36.501853      158.5          158.5          158.5         -1.6032943     -3.3770452      1.6872804     -3.120118       36.501853    
     98480   24.836697      158.5          158.5          158.5          0.25914333     1.7007298      0.48541957    -1.4087194      24.836697    
     98500   33.633308      158.5          158.5          158.5          2.6142508      2.958058      -0.68783854     5.572533       33.633308    
     98520   38.60999       158.5          158.5          158.5         -2.0894651     -6.1637951     -0.76254796     0.65794778     38.60999     
     98540   28.29881       158.5          158.5          158.5          2.7025595      3.1858214      4.8283437      0.093513577    28.29881     
     98560   33.848865      158.5          158.5          158.5         -2.4668938      1.8288361     -4.4541744     -4.7753431      33.848865    
     98580   31.786338      158.5          158.5          158.5          1.6935548      1.5406823     -0.15427428     3.6942564      31.786338    
     98600   32.898196      158.5          158.5          158.5          2.2079643     -1.4126327      3.967031       4.0694945      32.898196    
     98620   35.989866      158.5          158.5          158.5         -0.74816341    -2.3274059      0.7123079     -0.62939229     35.989866    
     98640   41.422294      158.5          158.5          158.5          2.1361586      5.3276028      0.90039292     0.18047999     41.422294    
     98660   35.415477      158.5          158.5          158.5         -1.7757728     -1.0887658     -3.3964994     -0.84205312     35.415477    
     98680   49.486411      158.5          158.5          158.5          4.0317251      4.110362       2.378776       5.6060373      49.486411    
     98700   37.474086      158.5          158.5          158.5         -0.082427896    0.89762846     0.54720248    -1.6921146      37.474086    
     98720   41.865652      158.5          158.5          158.5         -3.4680556     -3.3225664     -2.7124828     -4.3691176      41.865652    
     98740   48.398206      158.5          158.5          158.5          1.9075944      2.0132881      1.8244937      1.8850014      48.398206    
     98760   44.488214      158.5          158.5          158.5         -3.7040087     -7.5356582     -1.1748438     -2.4015242      44.488214    
     98780   45.630998      158.5          158.5          158.5          0.26602874    -2.1898717      1.6299774      1.3579806      45.630998    
     98800   52.371304      158.5          158.5          158.5         -1.9074165     -1.5753349     -1.1559478     -2.9909667      52.371304    
     98820   42.104137      158.5          158.5          158.5         -1.120187      -4.5560969      1.1344178      0.061117989    42.104137    
     98840   48.029277      158.5          158.5          158.5          0.052092057   -1.0445964      1.9016071     -0.70073454     48.029277    
     98860   44.623801      158.5          158.5          158.5         -2.3801337     -0.60597311    -2.7436707     -3.7907573      44.623801    
     98880   47.808684      158.5          158.5          158.5          0.81604061     2.1785639     -0.18488188     0.45443984     47.808684    
     98900   43.127998      158.5          158.5          158.5         -1.4366498     -1.3499764     -2.0020248     -0.95794822     43.127998    
     98920   50.404696      158.5          158.5          158.5          0.42044284    -1.7827917      3.0953635     -0.051243319    50.404696    
     98940   53.892893      158.5          158.5          158.5          2.4156809      3.1788935      3.6130744      0.45507465     53.892893    
     98960   45.141672      158.5          158.5          158.5         -1.1158235     -1.228862      -1.2352706     -0.88333779     45.141672    
     98980   50.397988      158.5          158.5          158.5          0.52926369     2.2484432     -1.0152701      0.35461798     50.397988    
     99000   58.709291      158.5          158.5          158.5         -0.94135434     1.3587505     -1.1817134     -3.0011001      58.709291    
     99020   51.608742      158.5          158.5          158.5          0.085422094   -1.0554308      0.14083876     1.1708584      51.608742    
     99040   49.888758      158.5          158.5          158.5          0.19680344     1.0047839     -0.53439662     0.12002302     49.888758    
     99060   55.880764      158.5          158.5          158.5          0.41321704     2.6047952     -2.7277575      1.3626134      55.880764    
     99080   52.65809       158.5          158.5          158.5          4.9949331      5.2000865      4.789036       4.9956767      52.65809     
     99100   51.993011      158.5          158.5          158.5         -2.3989907     -2.2224185     -0.23796499    -4.7365885      51.993011    
     99120   54.470495      158.5          158.5          158.5          0.45587038     0.89179346    -0.2515019      0.72731958     54.470495    
     99140   39.484185      158.5          158.5          158.5          0.16697538    -1.1496289      1.5884151      0.062139954    39.484185    
     99160   59.508357      158.5          158.5          158.5         -3.779539      -3.5267339     -2.9987635     -4.8131196      59.508357    
     99180   57.070288      158.5          158.5          158.5          1.0813695      5.4524902     -1.1227366     -1.0856451      57.070288    
     99200   62.584022      158.5          158.5          158.5         -2.1688146     -0.65694159    -1.4892103     -4.3602919      62.584022    
     99220   59.232965      158.5          158.5          158.5         -2.7243079     -5.3915151     -0.16860704    -2.6128016      59.232965    
     99240   57.339086      158.5          158.5          158.5         -0.46297738    -1.5589949      1.3334751     -1.1634123      57.339086    
     99260   51.460555      158.5          158.5          158.5         -1.5062924      0.85522073    -2.4429542     -2.9311437      51.460555    
     99280   58.974034      158.5          158.5          158.5         -1.6923835     -1.7952835     -1.1038898     -2.1779772      58.974034    
     99300   49.200379      158.5          158.5          158.5          1.8475222     -0.15857357     3.5411054      2.1600347      49.200379    
     99320   50.75133       158.5          158.5          158.5         -0.19203782    -1.3791414     -0.27956846     1.0825964      50.75133     
     99340   49.514541      158.5          158.5          158.5         -0.55650515     1.2596205     -1.927848      -1.001288       49.514541    
     99360   53.092838      158.5          158.5          158.5         -0.54231418    -0.45570921    -0.84960349    -0.32162985     53.092838    
     99380   44.877855      158.5          158.5          158.5         -0.015821764   -0.21497846     1.5101758     -1.3426626      44.877855    
     99400   39.627696      158.5          158.5          158.5          1.5946547     -0.050018147    2.6980045      2.1359779      39.627696    
     99420   41.665228      158.5          158.5          158.5          1.9012562      2.343049      -0.58190028     3.9426199      41.665228    
     99440   43.683876      158.5          158.5          158.5          1.0226278      3.343042      -1.8868603      1.6117016      43.683876    
     99460   47.201926      158.5          158.5          158.5          0.75715643     0.52659682     0.7665637      0.97830878     47.201926    
     99480   36.692626      158.5          158.5          158.5         -0.86775671    -0.98225804    -1.700641       0.079628899    36.692626    
     99500   41.513612      158.5          158.5          158.5         -0.49594632    -0.17102525    -1.6256694      0.30885572     41.513612    
     99520   41.429274      158.5          158.5          158.5         -1.3354972      0.79308385    -2.4026597     -2.3969158      41.429274    
     99540   27.475389      158.5          158.5          158.5          0.55291366     4.479744       1.2317928     -4.0527958      27.475389    
     99560   38.568889      158.5          158.5          158.5         -0.51693919    -0.99388836     0.010740044   -0.56766926     38.568889    
     99580   32.416542      158.5          158.5          158.5         -0.89286054    -2.3775485     -0.35985483     0.058821713    32.416542    
     99600   44.887705      158.5          158.5          158.5          0.52901366     3.5314207      0.27618305    -2.2205628      44.887705    
     99620   28.287112      158.5          158.5          158.5          0.6725109      3.4291486     -0.30978563    -1.1018303      28.287112    
     99640   36.477624      158.5          158.5          158.5          1.3845313      0.48233773     2.8713305      0.79992568     36.477624    
     99660   30.347366      158.5          158.5          158.5         -2.030247      -4.7883825      0.57485386    -1.8772124      30.347366    
     99680   45.399971      158.5          158.5          158.5         -1.2111818     -1.9937036      0.85511378    -2.4949555      45.399971    
     99700   38.289393      158.5          158.5          158.5         -1.5056815     -3.188          0.22640084    -1.5554455      38.289393    
     99720   30.081714      158.5          158.5          158.5         -0.91986499     0.16654979    -2.1335497     -0.79259503     30.081714    
     99740   33.237741      158.5          158.5          158.5          4.04319        3.0717442      2.8743515      6.1834742      33.237741    
     99760   39.641375      158.5          158.5          158.5          0.62307966    -1.6424874      1.2595195      2.2522069      39.641375    
     99780   31.739688      158.5          158.5          158.5         -0.23690881    -0.47555642     0.68458788    -0.9197579      31.739688    
     99800   39.198505      158.5          158.5          158.5          2.2976885      2.8371077      2.9128428      1.1431151      39.198505    
     99820   34.846672      158.5          158.5          158.5         -0.20644409    -0.55958216    -1.9231965      1.8634464      34.846672    
     99840   37.845829      158.5          158.5          158.5         -1.5404268     -3.2704294     -0.84087397    -0.50997691     37.845829    
     99860   33.993548      158.5          158.5          158.5         -2.0395273     -4.2681832      0.90888414    -2.7592829      33.993548    
     99880   45.038952      158.5          158.5          158.5         -1.3495363     -1.2983058     -0.47533122    -2.2749718      45.038952    
     99900   34.040367      158.5          158.5          158.5         -0.4094127     -0.39570994    -1.1004897      0.26796151     34.040367    
     99920   35.284468      158.5          158.5          158.5          0.18020957    -0.03019208     3.5431692     -2.9723484      35.284468    
     99940   24.822318      158.5          158.5          158.5         -0.55995721    -0.69146745     0.81579883    -1.804203       24.822318    
     99960   27.176907      158.5          158.5          158.5         -0.55941628    -1.8680919     -3.4381565      3.6279996      27.176907    
     99980   22.497635      158.5          158.5          158.5          1.6521662      1.2916069      1.5309112      2.1339805      22.497635    
    100000   36.513793      158.5          158.5          158.5         -2.768863      -2.1953624     -2.512475      -3.5987515      36.513793    
    100020   31.17731       158.5          158.5          158.5          1.094682       3.2170116     -2.1092892      2.1763236      31.17731     
    100040   27.704524      158.5          158.5          158.5          3.6568253      7.4347341     -1.0170859      4.5528278      27.704524    
    100060   25.14068       158.5          158.5          158.5         -2.7101756     -2.165213      -0.60415898    -5.361155       25.14068     
    100080   31.132114      158.5          158.5          158.5          3.5758631      3.7872387      5.6672153      1.2731353      31.132114    
    100100   21.627058      158.5          158.5          158.5          1.2370329      3.5923246      0.095382673    0.023391437    21.627058    
    100105   16.06229       158.5          158.5          158.5          3.4486845      1.5741703      5.8942362      2.8776469      16.06229     
Loop time of 6.91339 on 1 procs for 100000 steps with 100 atoms

Performance: 1249.748 ns/day, 0.019 hours/ns, 14464.677 timesteps/s, 1.446 Matom-step/s
77.6% CPU use with 1 MPI tasks x no OpenMP threads

MPI task timing breakdown:
Section |  min time  |  avg time  |  max time  |%varavg| %total
---------------------------------------------------------------
Pair    | 2.0855     | 2.0855     | 2.0855     |   0.0 | 30.17
Bond    | 1.5879     | 1.5879     | 1.5879     |   0.0 | 22.97
Neigh   | 0.070272   | 0.070272   | 0.070272   |   0.0 |  1.02
Comm    | 0.027302   | 0.027302   | 0.027302   |   0.0 |  0.39
Output  | 0.6568     | 0.6568     | 0.6568     |   0.0 |  9.50
Modify  | 2.3996     | 2.3996     | 2.3996     |   0.0 | 34.71
Other   |            | 0.08604    |            |       |  1.24

Nlocal:            100 ave         100 max         100 min
Histogram: 1 0 0 0 0 0 0 0 0 0
Nghost:              0 ave           0 max           0 min
Histogram: 1 0 0 0 0 0 0 0 0 0
Neighs:           3348 ave        3348 max        3348 min
Histogram: 1 0 0 0 0 0 0 0 0 0
FullNghs:            0 ave           0 max           0 min
Histogram: 1 0 0 0 0 0 0 0 0 0

Total # of neighbors = 3348
Ave neighs/atom = 33.48
Ave special neighs/atom = 5.88
Neighbor list builds = 786
Dangerous builds = 0

# Access cumulative reaction counts after the simulation
variable react1_count equal f_3[1]
variable react2_count equal f_3[2]
variable react3_count equal f_3[3]
variable react4_count equal f_3[4]

# Output cumulative reaction counts
print "Cumulative reaction count for reac1to2: ${react1_count}"
Cumulative reaction count for reac1to2: 0
print "Cumulative reaction count for reac2to3: ${react2_count}"
Cumulative reaction count for reac2to3: 0
print "Cumulative reaction count for reac3to2: ${react3_count}"
Cumulative reaction count for reac3to2: 0
print "Cumulative reaction count for reac2to1: ${react4_count}"
Cumulative reaction count for reac2to1: 0

#####################################################
print "All done"
All done
Total wall time: 0:00:09
