read_data	InitialFile.txt
Reading data file ...
  orthogonal box = (0 0 0) to (158.5 158.5 158.5)
  1 by 1 by 1 MPI processor grid
WARNING: Atom style in data file atomic differs from currently defined atom style molecular (src/src/read_data.cpp:621)
  reading atoms ...
  4 atoms
  scanning bonds ...
  1 = max bonds/atom
  scanning angles ...
  1 = max angles/atom
  scanning dihedrals ...
  1 = max dihedrals/atom
  reading bonds ...
  3 bonds
  reading angles ...
  2 angles
  reading dihedrals ...
  1 dihedrals
Finding 1-2 1-3 1-4 neighbors ...
  special bond factors lj:    0        0        0       
  special bond factors coul:  0        0        0       
     2 = max # of 1-2 neighbors
     1 = max # of 1-3 neighbors
     2 = max # of 1-4 neighbors
     3 = max # of special neighbors
  special bonds CPU = 0.017 seconds
  read_data CPU = 0.050 seconds

# Dreiding potential information
neighbor	2.0 bin
neigh_modify every 1 delay 0 check yes

bond_style      harmonic
bond_coeff	1 350 1.53
bond_coeff	2 700 1.53

angle_style     harmonic
angle_coeff	1 60 109.5
angle_coeff	2 120 109.5

dihedral_style	multi/harmonic
dihedral_coeff	1 1.73 -4.49 0.776 6.99 0.0
dihedral_coeff	2 1.73 -4.49 0.776 6.99 0.0

pair_style	lj/cut 10.5
pair_coeff	* * 1.0 1.0 10.5
pair_coeff	3 3 2.0 0.5 10.5

compute csym all centro/atom fcc
compute peratom all pe/atom


#####################################################
# Equilibration (Brownian dynamics at 300 K)

velocity 	all create 300.0 1231
fix		1 all nve/limit 0.05
fix 2 all brownian 30.0 12908410 gamma_t 3.0 rng gaussian # Compute a correct 300K simulation, check the value for gamma_t
thermo_style	custom step temp
thermo          10000
timestep	1
run		100000
Generated 0 of 3 mixed pair_coeff terms from geometric mixing rule
WARNING: One or more atoms are time integrated more than once (src/src/modify.cpp:289)
Neighbor list info ...
  update: every = 1 steps, delay = 0 steps, check = yes
  max neighbors/atom: 2000, page size: 100000
  master list distance cutoff = 12.5
  ghost atom cutoff = 12.5
  binsize = 6.25, bins = 26 26 26
  2 neighbor lists, perpetual/occasional/extra = 1 1 0
  (1) pair lj/cut, perpetual
      attributes: half, newton on
      pair build: half/bin/newton
      stencil: half/bin/3d
      bin: standard
  (2) compute centro/atom, occasional
      attributes: full, newton on
      pair build: full/bin
      stencil: full/bin/3d
      bin: standard
Per MPI rank memory allocation (min/avg/max) = 7.93 | 7.93 | 7.93 Mbytes
   Step          Temp     
         0   300          
     10000   383.75651    
     20000   312.90404    
     30000   231.72305    
     40000   593.03791    
     50000   491.66354    
     60000   214.24445    
     70000   221.18579    
     80000   215.31903    
     90000   320.74646    
    100000   214.42123    
Loop time of 0.20293 on 1 procs for 100000 steps with 4 atoms

Performance: 42576.206 ns/day, 0.001 hours/ns, 492780.167 timesteps/s, 1.971 Matom-step/s
74.4% CPU use with 1 MPI tasks x no OpenMP threads

MPI task timing breakdown:
Section |  min time  |  avg time  |  max time  |%varavg| %total
---------------------------------------------------------------
Pair    | 0.010332   | 0.010332   | 0.010332   |   0.0 |  5.09
Bond    | 0.043973   | 0.043973   | 0.043973   |   0.0 | 21.67
Neigh   | 0.0004348  | 0.0004348  | 0.0004348  |   0.0 |  0.21
Comm    | 0.029031   | 0.029031   | 0.029031   |   0.0 | 14.31
Output  | 0.0013831  | 0.0013831  | 0.0013831  |   0.0 |  0.68
Modify  | 0.070169   | 0.070169   | 0.070169   |   0.0 | 34.58
Other   |            | 0.04761    |            |       | 23.46

Nlocal:              4 ave           4 max           4 min
Histogram: 1 0 0 0 0 0 0 0 0 0
Nghost:              4 ave           4 max           4 min
Histogram: 1 0 0 0 0 0 0 0 0 0
Neighs:              0 ave           0 max           0 min
Histogram: 1 0 0 0 0 0 0 0 0 0
FullNghs:            0 ave           0 max           0 min
Histogram: 1 0 0 0 0 0 0 0 0 0

Total # of neighbors = 0
Ave neighs/atom = 0
Ave special neighs/atom = 3
Neighbor list builds = 18
Dangerous builds = 0
unfix 1
unfix 2
write_restart 	restart.${simname}.dreiding1
write_restart 	restart.InitialFile.dreiding1
System init for write_restart ...
Generated 0 of 3 mixed pair_coeff terms from geometric mixing rule

#####################################################
# Define Settings
compute eng all pe/atom
compute eatoms all reduce sum c_eng

#####################################################
# Minimization

dump mydmp all atom 100 dump.lammpstrj

reset_timestep 0
fix 1 all nvt temp 300.0 300.0 100.0
thermo 20
thermo_style custom step pe lx ly lz press pxx pyy pzz c_eatoms
min_style cg
minimize 1e-25 1e-25 500000 1000000
Generated 0 of 3 mixed pair_coeff terms from geometric mixing rule
Per MPI rank memory allocation (min/avg/max) = 9.055 | 9.055 | 9.055 Mbytes
   Step         PotEng           Lx             Ly             Lz           Press           Pxx            Pyy            Pzz          c_eatoms   
         0   0.43860544     158.5          158.5          158.5         -0.16003137    -0.36569328    -0.047067813   -0.067333032    0.43860544   
        20   0.0061350799   158.5          158.5          158.5          0.023682201    0.035341018    0.018049124    0.017656461    0.0061350799 
        40   0.0060020261   158.5          158.5          158.5          0.021719748    0.027597115    0.018782679    0.018779451    0.0060020261 
        56   0.006          158.5          158.5          158.5          0.022012451    0.028520348    0.018743954    0.01877305     0.006        
Loop time of 0.000310215 on 1 procs for 56 steps with 4 atoms

85.4% CPU use with 1 MPI tasks x no OpenMP threads

Minimization stats:
  Stopping criterion = energy tolerance
  Energy initial, next-to-last, final = 
     0.438605443419832 0.00600000000000178 0.00600000000000178
  Force two-norm initial, final = 15.897386 1.7800243e-09
  Force max component initial, final = 9.4031225 1.1766233e-09
  Final line search alpha, max atom move = 1 1.1766233e-09
  Iterations, force evaluations = 56 233

MPI task timing breakdown:
Section |  min time  |  avg time  |  max time  |%varavg| %total
---------------------------------------------------------------
Pair    | 1.8529e-05 | 1.8529e-05 | 1.8529e-05 |   0.0 |  5.97
Bond    | 8.2137e-05 | 8.2137e-05 | 8.2137e-05 |   0.0 | 26.48
Neigh   | 0          | 0          | 0          |   0.0 |  0.00
Comm    | 3.7869e-05 | 3.7869e-05 | 3.7869e-05 |   0.0 | 12.21
Output  | 2.3005e-05 | 2.3005e-05 | 2.3005e-05 |   0.0 |  7.42
Modify  | 0          | 0          | 0          |   0.0 |  0.00
Other   |            | 0.0001487  |            |       | 47.93

Nlocal:              4 ave           4 max           4 min
Histogram: 1 0 0 0 0 0 0 0 0 0
Nghost:              4 ave           4 max           4 min
Histogram: 1 0 0 0 0 0 0 0 0 0
Neighs:              0 ave           0 max           0 min
Histogram: 1 0 0 0 0 0 0 0 0 0
FullNghs:            0 ave           0 max           0 min
Histogram: 1 0 0 0 0 0 0 0 0 0

Total # of neighbors = 0
Ave neighs/atom = 0
Ave special neighs/atom = 3
Neighbor list builds = 0
Dangerous builds = 0

group type1_atoms type 1
2 atoms in group type1_atoms
group type2_atoms type 2
1 atoms in group type2_atoms
group type3_atoms type 3
1 atoms in group type3_atoms

molecule mol1closeTo3PRE mol1closeTo3PRE.txt
Read molecule template mol1closeTo3PRE:
  1 molecules
  0 fragments
  4 atoms with max type 3
  3 bonds with max type 1
  2 angles with max type 1
  1 dihedrals with max type 1
  0 impropers with max type 0
molecule mol1closeTo3POST mol1closeTo3POST.txt
Read molecule template mol1closeTo3POST:
  1 molecules
  0 fragments
  4 atoms with max type 3
  3 bonds with max type 1
  2 angles with max type 1
  1 dihedrals with max type 1
  0 impropers with max type 0
molecule mol3closeTo1POST mol3closeTo1POST.txt
Read molecule template mol3closeTo1POST:
  1 molecules
  0 fragments
  4 atoms with max type 2
  3 bonds with max type 1
  2 angles with max type 1
  1 dihedrals with max type 1
  0 impropers with max type 0
molecule mol2closeTo3PRE mol2closeTo3PRE.txt
Read molecule template mol2closeTo3PRE:
  1 molecules
  0 fragments
  4 atoms with max type 3
  3 bonds with max type 1
  2 angles with max type 1
  1 dihedrals with max type 1
  0 impropers with max type 0
molecule mol2closeTo3POST mol2closeTo3POST.txt
Read molecule template mol2closeTo3POST:
  1 molecules
  0 fragments
  4 atoms with max type 3
  3 bonds with max type 1
  2 angles with max type 1
  1 dihedrals with max type 1
  0 impropers with max type 0
molecule mol3closeTo2POST mol3closeTo2POST.txt
Read molecule template mol3closeTo2POST:
  1 molecules
  0 fragments
  4 atoms with max type 2
  3 bonds with max type 1
  2 angles with max type 1
  1 dihedrals with max type 1
  0 impropers with max type 0
molecule mol2closeTo1PRE mol2closeTo1PRE.txt
Read molecule template mol2closeTo1PRE:
  1 molecules
  0 fragments
  4 atoms with max type 3
  3 bonds with max type 1
  2 angles with max type 1
  1 dihedrals with max type 1
  0 impropers with max type 0
molecule mol2closeTo1POST mol2closeTo1POST.txt
Read molecule template mol2closeTo1POST:
  1 molecules
  0 fragments
  4 atoms with max type 3
  3 bonds with max type 1
  2 angles with max type 1
  1 dihedrals with max type 1
  0 impropers with max type 0

#####################################################
# Do the reactions
fix 3 all bond/react   react reac1to2 all 1 0 10 mol1closeTo3PRE mol1closeTo3POST map_1to2.txt
dynamic group bond_react_MASTER_group defined

#fix 4 all bond/react  # react reac2to3 type2_atoms 1 0 10 mol2closeTo3PRE mol2closeTo3POST map_2to3.txt
#fix 5 all bond/react  # react reac3to2 type3_atoms 1 0 10 mol2closeTo3PRE mol3closeTo2POST map_3to2.txt
#fix 6 all bond/react  # react reac2to1 type2_atoms 1 0 10 mol2closeTo1PRE mol2closeTo1POST map_2to1.txt

run 100000

CITE-CITE-CITE-CITE-CITE-CITE-CITE-CITE-CITE-CITE-CITE-CITE-CITE

Your simulation uses code contributions which should be cited:

- fix bond/react: reacter.org doi:10.1016/j.polymer.2017.09.038, doi:10.1021/acs.macromol.0c02012

@Article{Gissinger17,
 author = {J. R. Gissinger and B. D. Jensen and K. E. Wise},
 title = {Modeling Chemical Reactions in Classical Molecular Dynamics Simulations},
 journal = {Polymer},
 year =    2017,
 volume =  128,
 pages =   {211--217}
}

@Article{Gissinger20,
 author = {J. R. Gissinger, B. D. Jensen, K. E. Wise},
 title = {{REACTER}: A Heuristic Method for Reactive Molecular Dynamics},
 journal = {Macromolecules},
 year =    2020,
 volume =  53,
 number =  22,
 pages =   {9953--9961}
}

CITE-CITE-CITE-CITE-CITE-CITE-CITE-CITE-CITE-CITE-CITE-CITE-CITE

Generated 0 of 3 mixed pair_coeff terms from geometric mixing rule
Neighbor list info ...
  update: every = 1 steps, delay = 0 steps, check = yes
  max neighbors/atom: 2000, page size: 100000
  master list distance cutoff = 12.5
  ghost atom cutoff = 12.5
  binsize = 6.25, bins = 26 26 26
  3 neighbor lists, perpetual/occasional/extra = 1 2 0
  (1) pair lj/cut, perpetual
      attributes: half, newton on
      pair build: half/bin/newton
      stencil: half/bin/3d
      bin: standard
  (2) compute centro/atom, occasional
      attributes: full, newton on
      pair build: full/bin
      stencil: full/bin/3d
      bin: standard
  (3) fix bond/react, occasional, copy from (1)
      attributes: half, newton on
      pair build: copy
      stencil: none
      bin: none
Per MPI rank memory allocation (min/avg/max) = 9.368 | 9.368 | 9.368 Mbytes
   Step         PotEng           Lx             Ly             Lz           Press           Pxx            Pyy            Pzz          c_eatoms   
        56   0.006          158.5          158.5          158.5          0.022012451    0.028520348    0.018743954    0.01877305     0.006        
        60   102.37797      158.5          158.5          158.5         -0.41929376    -1.3442997      0.13840987    -0.0519915      102.37797    
        80   83.11844       158.5          158.5          158.5          0.63822754     1.2093707      0.26230084     0.44301111     83.11844     
       100   95.480213      158.5          158.5          158.5         -0.4078959     -0.045669793   -0.41056181    -0.76745609     95.480213    
       120   89.003731      158.5          158.5          158.5          0.36869958     1.7235455     -0.17032387    -0.44712287     89.003731    
       140   84.661955      158.5          158.5          158.5          0.3996078      0.31238779     0.35028019     0.53615544     84.661955    
       160   91.48476       158.5          158.5          158.5         -0.98422905    -2.6811232     -0.23813655    -0.033427456    91.48476     
       180   82.65088       158.5          158.5          158.5          0.073609787    0.41677753    -0.039883361   -0.15606481     82.65088     
       200   87.813665      158.5          158.5          158.5          0.64331572     1.677251       0.085521415    0.16717473     87.813665    
       220   85.895722      158.5          158.5          158.5         -0.017286838   -0.11629891     0.071764989   -0.0073265917   85.895722    
       240   83.043007      158.5          158.5          158.5         -0.055860899   -0.22135996     0.0076535669   0.046123695    83.043007    
       260   87.135167      158.5          158.5          158.5         -0.30511983    -0.63357292    -0.15046741    -0.13131917     87.135167    
       280   82.443524      158.5          158.5          158.5         -0.1197757     -0.45417057     0.042237953    0.052605527    82.443524    
       300   84.856478      158.5          158.5          158.5          0.19281224     0.33817832     0.072959196    0.1672992      84.856478    
       320   84.484027      158.5          158.5          158.5          0.4380653      1.3029475      0.0061670569   0.0050813867   84.484027    
       340   82.621554      158.5          158.5          158.5         -0.19260099    -0.24555848    -0.064762682   -0.2674818      82.621554    
       360   84.99874       158.5          158.5          158.5         -0.42338749    -1.3915113      0.015135026    0.10621375     84.99874     
       380   83.020784      158.5          158.5          158.5          0.20454525     0.055246557    0.10097506     0.45741411     83.020784    
       400   83.591827      158.5          158.5          158.5         -0.049534533    0.42307834    -0.09864774    -0.4730342      83.591827    
       420   84.516658      158.5          158.5          158.5          0.13056995     0.75463358    -0.064095366   -0.29882837     84.516658    
       440   82.492252      158.5          158.5          158.5          0.21439351     0.26071147     0.068951986    0.31351708     82.492252    
       460   84.561651      158.5          158.5          158.5         -0.28651114    -1.0854246     -0.0062453548   0.23213658     84.561651    
       480   83.392846      158.5          158.5          158.5         -0.34192412    -0.66717979    -0.055059998   -0.30353258     83.392846    
       500   83.375661      158.5          158.5          158.5          0.3131549      0.96671537     0.043716717   -0.070967401    83.375661    
       520   85.394309      158.5          158.5          158.5          0.35727597     0.60586074     0.042128865    0.4238383      85.394309    
       540   82.368834      158.5          158.5          158.5         -0.16240686    -0.28031512    -0.048555955   -0.15834951     82.368834    
       560   85.780397      158.5          158.5          158.5         -0.1430391     -0.2689871      0.051290916   -0.2114211      85.780397    
       580   83.898353      158.5          158.5          158.5         -0.22598839    -0.72058076     0.0061784744   0.036437115    83.898353    
       600   83.898173      158.5          158.5          158.5         -0.0037296433  -0.25322178    -0.012745117    0.25477797     83.898173    
       620   87.115434      158.5          158.5          158.5          0.58511489     1.7152035      0.025861679    0.014279538    87.115434    
       640   82.896168      158.5          158.5          158.5          0.023253518    0.55245546    -0.052977023   -0.42971789     82.896168    
       660   86.451777      158.5          158.5          158.5         -0.51592226    -1.9500039      0.055513231    0.34672384     86.451777    
       680   86.275114      158.5          158.5          158.5         -0.082177926   -0.61616885     0.031677762    0.33795731     86.275114    
       700   83.221779      158.5          158.5          158.5          0.087621471    0.90888181    -0.095393402   -0.550624       83.221779    
       720   88.315092      158.5          158.5          158.5          0.035566175    0.38752616     0.031365141   -0.31219277     88.315092    
       740   84.252119      158.5          158.5          158.5          0.3939066      0.75651783     0.11032575     0.31487621     84.252119    
       760   84.910702      158.5          158.5          158.5          0.02594103    -0.14281769    -0.016942642    0.23758342     84.910702    
       780   87.521188      158.5          158.5          158.5         -0.84213541    -1.9504079     -0.23855708    -0.33744124     87.521188    
       800   82.6049        158.5          158.5          158.5          0.29726627     0.41549082     0.095084522    0.38122348     82.6049      
       820   87.151714      158.5          158.5          158.5          0.68013003     1.4863434      0.15311027     0.40093642     87.151714    
       840   84.245059      158.5          158.5          158.5         -0.27928832    -0.11638178    -0.044233383   -0.67724981     84.245059    
       860   83.633521      158.5          158.5          158.5         -0.17337921    -0.49339067    -0.057812305    0.031065353    83.633521    
       880   85.585346      158.5          158.5          158.5          0.058188366   -0.27100773    -0.012537064    0.45810989     85.585346    
       900   82.547034      158.5          158.5          158.5         -0.30467045    -0.49049712    -0.033672525   -0.38984172     82.547034    
       920   84.888942      158.5          158.5          158.5          0.22600027     0.84248158     0.042394777   -0.20687555     84.888942    
       940   83.428231      158.5          158.5          158.5          0.3848829      0.88390682     0.042835121    0.22790677     83.428231    
       960   83.072904      158.5          158.5          158.5         -0.22501506    -0.88015776     0.024715042    0.18039755     83.072904    
       980   84.588797      158.5          158.5          158.5         -0.39542194    -0.94157105    -0.080034575   -0.16466019     84.588797    
      1000   82.496562      158.5          158.5          158.5          0.16920091     0.55223436    -0.029335482   -0.015296151    82.496562    
      1020   84.367887      158.5          158.5          158.5          0.22453815     0.33799231     0.083438286    0.25218386     84.367887    
      1040   83.621254      158.5          158.5          158.5          0.004407765    0.2483421     -0.0011747006  -0.23394411     83.621254    
      1060   82.955397      158.5          158.5          158.5          0.12315145     0.47631682    -0.0046763119  -0.10218616     82.955397    
      1080   84.858111      158.5          158.5          158.5         -0.38712074    -1.1643386     -0.033754263    0.036730595    84.858111    
      1100   82.842676      158.5          158.5          158.5         -0.19414483    -0.80829005    -0.01609833     0.24195389     82.842676    
      1120   84.106745      158.5          158.5          158.5          0.48228125     1.2544248      0.064614797    0.1278042      84.106745    
      1140   84.788984      158.5          158.5          158.5          0.058447932    0.69815863     0.0015670459  -0.52438188     84.788984    
      1160   82.546564      158.5          158.5          158.5         -0.14245548    -0.52418787    -0.030460791    0.12728223     82.546564    
      1180   85.943901      158.5          158.5          158.5         -0.10113561    -0.57072327    -0.075692704    0.34300914     85.943901    
      1200   83.026518      158.5          158.5          158.5         -0.16435241    -0.26055706     0.023757504   -0.25625769     83.026518    
      1220   84.414351      158.5          158.5          158.5         -0.036733258    0.3304891      0.021899924   -0.4625888      84.414351    
      1240   85.844185      158.5          158.5          158.5          0.46055158     0.987676       0.034896522    0.35908223     85.844185    
      1260   82.385236      158.5          158.5          158.5          0.23524962     0.17021945     0.029000759    0.50652864     82.385236    
      1280   86.984137      158.5          158.5          158.5         -0.81159386    -1.721234      -0.14888428    -0.56466332     86.984137    
      1300   83.469661      158.5          158.5          158.5          0.18465889     0.1895091      0.131932       0.23253556     83.469661    
      1320   84.706565      158.5          158.5          158.5          0.25848935     0.5884314     -0.0077573374   0.194794       84.706565    
      1340   86.614296      158.5          158.5          158.5          0.095918656    0.33228313     0.026014907   -0.070542072    86.614296    
      1360   82.809081      158.5          158.5          158.5          0.12710279     0.6881817      0.016968717   -0.32384205     82.809081    
      1380   86.59823       158.5          158.5          158.5         -0.27984157    -0.77553117    -0.042519633   -0.021473916    86.59823     
      1400   84.894189      158.5          158.5          158.5         -0.45535789    -1.5649706     -0.01681319     0.21571011     84.894189    
      1420   83.661683      158.5          158.5          158.5          0.26439944     0.59692471     0.031496646    0.16477696     83.661683    
      1440   87.420909      158.5          158.5          158.5          0.63574337     1.8030372      0.072904874    0.031288014    87.420909    
      1460   83.105269      158.5          158.5          158.5         -0.36285251    -0.56677409     0.013442381   -0.53522581     83.105269    
      1480   86.092181      158.5          158.5          158.5         -0.19905757    -0.98583962     0.005043043    0.38362388     86.092181    
      1500   84.75959       158.5          158.5          158.5          0.0021361749  -0.059373628   -0.12474932     0.19053147     84.75959     
      1520   83.626534      158.5          158.5          158.5         -0.22619151     0.015380266   -0.054246211   -0.63970858     83.626534    
      1540   85.717519      158.5          158.5          158.5          0.32430186     0.72858263     0.17134142     0.07298153     85.717519    
      1560   82.970963      158.5          158.5          158.5          0.34918457     0.62346652     0.10259163     0.32149555     82.970963    
      1580   84.413636      158.5          158.5          158.5         -0.38507413    -0.96942674    -0.14084062    -0.044955046    84.413636    
      1600   83.6623        158.5          158.5          158.5         -0.33374142    -0.66955325    -0.18083216    -0.15083885     83.6623      
      1620   82.994563      158.5          158.5          158.5          0.38704194     0.73939211     0.11511176     0.30662195     82.994563    
      1640   84.531906      158.5          158.5          158.5          0.19908464     0.36207319     0.16128621     0.073894533    84.531906    
      1660   82.686088      158.5          158.5          158.5         -0.19537538    -0.0045115218  -0.098344607   -0.48327001     82.686088    
      1680   83.854074      158.5          158.5          158.5          0.036668388   -0.046555468   -0.055632379    0.21219301     83.854074    
      1700   83.713368      158.5          158.5          158.5         -0.18913334    -0.82324845     0.014210397    0.24163804     83.713368    
      1720   82.630557      158.5          158.5          158.5         -0.14111465    -0.037726712   -0.027918663   -0.35769858     82.630557    
      1740   84.799704      158.5          158.5          158.5          0.42157454     1.2211969      0.062700199   -0.019173461    84.799704    
      1760   82.88318       158.5          158.5          158.5          0.11281748    -0.0049754867   0.078998893    0.26442902     82.88318     
      1780   83.788577      158.5          158.5          158.5         -0.30663147    -0.93221167    -0.036119944    0.048437211    83.788577    
      1800   85.213046      158.5          158.5          158.5         -0.20145982    -0.17952568    -0.12037767    -0.3044761      85.213046    
      1820   82.377976      158.5          158.5          158.5          0.055570556    0.078418769    0.012555076    0.075737821    82.377976    
      1840   86.434535      158.5          158.5          158.5          0.30195132     0.32730162     0.13015463     0.4483977      86.434535    
      1860   84.202248      158.5          158.5          158.5          0.21766244     1.1071634      0.050176095   -0.50435222     84.202248    
      1880   84.077373      158.5          158.5          158.5         -0.30544608    -0.74536744    -0.045791412   -0.1251794      84.077373    
      1900   87.385031      158.5          158.5          158.5         -0.32182356    -1.3756986     -0.21222212     0.62245007     87.385031    
      1920   82.851139      158.5          158.5          158.5          0.13579339     0.66264921     0.023553945   -0.27882298     82.851139    
      1940   88.206578      158.5          158.5          158.5          0.26400385     0.9464284      0.17398618    -0.32840303     88.206578    
      1960   84.291652      158.5          158.5          158.5         -0.031069512   -0.055620251   -0.19129999     0.15371171     84.291652    
      1980   85.620699      158.5          158.5          158.5          0.042288705   -0.11051607    -0.0016067171   0.2389889      85.620699    
      2000   86.544473      158.5          158.5          158.5         -0.3340416     -0.82620663     0.16654396    -0.34246212     86.544473    
      2020   83.64866       158.5          158.5          158.5         -0.19998445    -0.18903954    -0.18570679    -0.22520704     83.64866     
      2040   88.07151       158.5          158.5          158.5          0.71341762     1.2146755      0.20287297     0.72270441     88.07151     
      2060   82.736452      158.5          158.5          158.5          0.15848323     0.48262421     0.08155526    -0.088729768    82.736452    
      2080   86.71084       158.5          158.5          158.5         -0.72202448    -1.4962318     -0.19507059    -0.47477108     86.71084     
      2100   84.683798      158.5          158.5          158.5          0.15948982    -0.11130601     0.056285601    0.53348988     84.683798    
      2120   83.916618      158.5          158.5          158.5          0.17506466     0.57951224    -0.048443956   -0.0058742982   83.916618    
      2140   86.710039      158.5          158.5          158.5          0.027056101    0.28890882     0.090834472   -0.29857498     86.710039    
      2160   82.591132      158.5          158.5          158.5          0.10945866     0.5093059      0.0080878827  -0.18901781     82.591132    
      2180   85.592873      158.5          158.5          158.5         -0.080797296   -0.47592692    -0.068303634    0.30183867     85.592873    
      2200   84.560024      158.5          158.5          158.5         -0.45923476    -1.3294877     -0.072166821    0.023950246    84.560024    
      2220   83.162541      158.5          158.5          158.5          0.082756235    0.58875439    -0.039825391   -0.30066029     83.162541    
      2240   85.301958      158.5          158.5          158.5          0.54539341     1.1762367      0.1871089      0.27283463     85.301958    
      2260   83.189977      158.5          158.5          158.5         -0.14164928    -0.51241996     0.086754594    0.00071752452  83.189977    
      2280   83.621257      158.5          158.5          158.5         -0.15546978    -0.36490461    -0.099654388   -0.0018503513   83.621257    
      2300   83.981247      158.5          158.5          158.5         -0.070774356    0.045010408   -0.19803843    -0.059295051    83.981247    
      2320   82.600453      158.5          158.5          158.5         -0.11622164    -0.31369852     0.036382343   -0.071348752    82.600453    
      2340   83.859813      158.5          158.5          158.5          0.25284644     0.37314028     0.19942564     0.18597341     83.859813    
      2360   82.927927      158.5          158.5          158.5          0.17651441     0.64163371    -0.043959663   -0.068130807    82.927927    
      2380   83.158938      158.5          158.5          158.5         -0.23086075    -0.55201478    -0.07234253    -0.068224943    83.158938    
      2400   83.55669       158.5          158.5          158.5         -0.22167498    -0.65468483    -0.063084489    0.052744367    83.55669     
      2420   82.583615      158.5          158.5          158.5          0.22961573     0.47875261     0.053114564    0.15698002     82.583615    
      2440   83.959029      158.5          158.5          158.5          0.06726789     0.32111257     0.065855924   -0.18516483     83.959029    
      2460   82.930864      158.5          158.5          158.5         -0.072757873   -0.011043713    0.0045878688  -0.21181777     82.930864    
      2480   83.500495      158.5          158.5          158.5          0.18350338     0.1409963      0.06471611     0.34479771     83.500495    
      2500   84.121612      158.5          158.5          158.5         -0.38375142    -0.79720439    -0.22342981    -0.13062004     84.121612    
      2520   82.653324      158.5          158.5          158.5         -0.096699055   -0.095055108   -0.021067337   -0.17397472     82.653324    
      2540   84.889646      158.5          158.5          158.5          0.48551906     1.048723       0.17358512     0.23424904     84.889646    
      2560   83.446521      158.5          158.5          158.5          0.098878855    0.04274576     0.16067296     0.093217848    83.446521    
      2580   83.627466      158.5          158.5          158.5         -0.29746179    -0.69151951    -0.10249607    -0.098369793    83.627466    
      2600   85.480841      158.5          158.5          158.5         -0.17105854    -0.040865891   -0.34701712    -0.12529263     85.480841    
      2620   82.521872      158.5          158.5          158.5          0.11230037    -0.023175115    0.13420966     0.22586655     82.521872    
      2640   85.41488       158.5          158.5          158.5          0.0031432828  -0.081759787    0.15423649    -0.063046853    85.41488     
      2660   84.519701      158.5          158.5          158.5          0.34460277     1.2158706      0.020686075   -0.20274838     84.519701    
      2680   83.074471      158.5          158.5          158.5         -0.0073675365  -0.16190826     0.0099637766   0.12984188     83.074471    
      2700   87.001228      158.5          158.5          158.5         -0.67753701    -1.8426233     -0.23060915     0.040621381    87.001228    
      2720   82.965681      158.5          158.5          158.5          0.26807335     0.44935463     0.10774466     0.24712075     82.965681    
      2740   85.561466      158.5          158.5          158.5          0.19530277     0.977133       0.051604621   -0.4428293      85.561466    
      2760   86.122376      158.5          158.5          158.5         -0.063914508   -0.23797852     0.016349814    0.029885184    86.122376    
      2780   83.059006      158.5          158.5          158.5          0.26112307     0.38908783     0.037215698    0.35706569     83.059006    
      2800   87.695214      158.5          158.5          158.5         -0.35017065    -0.4792366     -0.10428209    -0.46699325     87.695214    
      2820   83.710694      158.5          158.5          158.5         -0.38701818    -1.061225      -0.027438125   -0.072391446    83.710694    
      2840   86.466598      158.5          158.5          158.5          0.46489656     0.97293667     0.053775708    0.36797729     86.466598    
      2860   86.252618      158.5          158.5          158.5          0.57715818     1.1961954      0.21042716     0.32485197     86.252618    
      2880   84.022635      158.5          158.5          158.5         -0.4969956     -1.1489371     -0.065144996   -0.27690469     84.022635    
      2900   88.007587      158.5          158.5          158.5         -0.36241461    -0.60737843    -0.25342415    -0.22644126     88.007587    
      2920   83.13184       158.5          158.5          158.5          0.41624448     0.63993262     0.11913605     0.48966478     83.13184     
      2940   87.182852      158.5          158.5          158.5         -0.17309371    -0.13871771     0.00040628985 -0.38096969     87.182852    
      2960   85.302199      158.5          158.5          158.5          0.15067653     0.64613465     0.13311808    -0.32722315     85.302199    
      2980   83.641306      158.5          158.5          158.5          0.34083871     0.46099983     0.088961638    0.47255466     83.641306    
      3000   86.838424      158.5          158.5          158.5         -0.67722213    -1.4863642     -0.38690196    -0.15840022     86.838424    
      3020   82.898603      158.5          158.5          158.5         -0.058822411   -0.17762533     0.05510774    -0.053949641    82.898603    
      3040   84.671659      158.5          158.5          158.5          0.42547514     1.1104608      0.13735742     0.028607235    84.671659    
      3060   84.583592      158.5          158.5          158.5          0.08243048    -0.054508513    0.11531409     0.18648586     84.583592    
      3080   82.553686      158.5          158.5          158.5         -0.065661905   -0.20082216     0.0056182406  -0.0017817966   82.553686    
      3100   85.209755      158.5          158.5          158.5         -0.18508398     0.019712743   -0.26521508    -0.30974961     85.209755    
      3120   83.003804      158.5          158.5          158.5         -0.11588344    -0.49954332    -0.011203934    0.16309693     83.003804    
      3140   83.622484      158.5          158.5          158.5          0.020141005   -0.10604257     0.10814174     0.05832385     83.622484    
      3160   84.694537      158.5          158.5          158.5          0.42410303     1.1134898      0.14652211     0.012297212    84.694537    
      3180   82.481846      158.5          158.5          158.5         -0.045992618   -0.069087828    0.019913049   -0.088803076    82.481846    
      3200   84.888117      158.5          158.5          158.5         -0.44719745    -1.1196899     -0.19884411    -0.023058357    84.888117    
      3220   83.667227      158.5          158.5          158.5          0.17467748     0.22253047    -0.016566424    0.3180684      83.667227    
      3240   83.646176      158.5          158.5          158.5         -0.053652566    0.29334325    -0.013812824   -0.44048813     83.646176    
      3260   85.657111      158.5          158.5          158.5          0.10191734     0.15145157     0.24842128    -0.094120841    85.657111    
      3280   83.038405      158.5          158.5          158.5          0.3456614      0.54936205     0.16796378     0.31965839     83.038405    
      3300   85.728203      158.5          158.5          158.5         -0.3365463     -0.63687472    -0.35697277    -0.015791412    85.728203    
      3320   85.066637      158.5          158.5          158.5         -0.48634292    -0.94071892    -0.29784657    -0.22046326     85.066637    
      3340   84.323593      158.5          158.5          158.5          0.38934919     0.83650614     0.16888872     0.16265269     84.323593    
      3360   87.740491      158.5          158.5          158.5          0.5795777      0.75426061     0.41677057     0.56770193     87.740491    
      3380   83.311868      158.5          158.5          158.5         -0.31951032    -0.43191582    -0.027418958   -0.49919618     83.311868    
      3400   86.908776      158.5          158.5          158.5         -0.13289798    -0.051383422   -0.33073033    -0.016580185    86.908776    
      3420   85.370984      158.5          158.5          158.5         -0.23659945    -0.42467055    -0.26537283    -0.019754988    85.370984    
      3440   83.955445      158.5          158.5          158.5         -0.1119936     -0.50634828     0.11876326     0.051604222    83.955445    
      3460   87.331754      158.5          158.5          158.5          0.56461531     1.1692161      0.33038893     0.19424088     87.331754    
      3480   83.400331      158.5          158.5          158.5          0.20511373     0.71432983     0.14385418    -0.24284281     83.400331    
      3500   85.873139      158.5          158.5          158.5         -0.53024483    -1.4269352     -0.27597062     0.11217136     85.873139    
      3520   86.118152      158.5          158.5          158.5         -0.23534052    -0.44748836    -0.40034692     0.14181372     86.118152    
      3540   82.945734      158.5          158.5          158.5          0.37927511     0.767611       0.2705683      0.099646031    82.945734    
      3560   87.259661      158.5          158.5          158.5         -0.12745376     0.058775868    0.16481006    -0.60594719     87.259661    
      3580   83.334362      158.5          158.5          158.5          0.202392       0.40885262     0.069828108    0.12849527     83.334362    
      3600   84.726601      158.5          158.5          158.5          0.16411947     0.098618163   -0.056772648    0.45051289     84.726601    
      3620   85.936592      158.5          158.5          158.5         -0.70610646    -1.2032796     -0.38220974    -0.53283001     85.936592    
      3640   82.650867      158.5          158.5          158.5          0.16735504     0.19033139     0.19994818     0.11178555     82.650867    
      3660   86.182464      158.5          158.5          158.5          0.49616887     0.99893074     0.16404989     0.32552598     86.182464    
      3680   83.549899      158.5          158.5          158.5          0.010627611   -0.1157525      0.029411126    0.11822421     83.549899    
      3700   83.820369      158.5          158.5          158.5         -0.27745711    -0.43165372    -0.043228006   -0.35748961     83.820369    
      3720   85.207256      158.5          158.5          158.5         -0.078235657   -0.022634481   -0.14239691    -0.069675578    85.207256    
      3740   82.721038      158.5          158.5          158.5         -0.024615041   -0.33749986    -0.081979867    0.3456346      82.721038    
      3760   84.517765      158.5          158.5          158.5          0.040642259    0.27826437     0.13933963    -0.29567723     84.517765    
      3780   83.618941      158.5          158.5          158.5          0.33719881     0.79088547     0.2654888     -0.044777856    83.618941    
      3800   82.954108      158.5          158.5          158.5         -0.11751654    -0.48537492    -0.13649989     0.26932519     82.954108    
      3820   84.177867      158.5          158.5          158.5         -0.35298801    -0.69433712    -0.27913973    -0.085487179    84.177867    
      3840   82.824938      158.5          158.5          158.5          0.13960391     0.41344042     0.082727378   -0.077356067    82.824938    
      3860   83.47056       158.5          158.5          158.5          0.048396603    0.12325402     0.096477288   -0.074541497    83.47056     
      3880   83.589594      158.5          158.5          158.5          0.11323422     0.02073545     0.10957885     0.20938836     83.589594    
      3900   82.666232      158.5          158.5          158.5          0.14022132     0.40317292     0.050984579   -0.033493551    82.666232    
      3920   84.003996      158.5          158.5          158.5         -0.35281684    -0.5083691     -0.26853474    -0.28154669     84.003996    
      3940   82.946561      158.5          158.5          158.5         -0.10685943    -0.50592241    -0.11111644     0.29646055     82.946561    
      3960   83.458603      158.5          158.5          158.5          0.30431544     0.61066325     0.21485641     0.087426649    83.458603    
      3980   84.357002      158.5          158.5          158.5          0.14404491     0.44443203     0.20089555    -0.21319285     84.357002    
      4000   82.615903      158.5          158.5          158.5         -0.18037461    -0.44163938    -0.045482336   -0.054002109    82.615903    
      4020   85.610896      158.5          158.5          158.5         -0.055508859   -0.16087468    -0.18464882     0.17899692     85.610896    
      4040   83.663805      158.5          158.5          158.5         -0.14048472    -0.16177814    -0.20975771    -0.049918292    83.663805    
      4060   84.149823      158.5          158.5          158.5         -0.19956607    -0.17531533     0.063783041   -0.48716591     84.149823    
      4080   86.415563      158.5          158.5          158.5          0.5866588      0.8791501      0.42254029     0.458286       86.415563    
      4100   82.637116      158.5          158.5          158.5          0.26052003     0.2388645      0.17690426     0.36579133     82.637116    
      4120   86.521809      158.5          158.5          158.5         -0.76643353    -1.1484472     -0.64229327    -0.50856007     86.521809    
      4140   84.755967      158.5          158.5          158.5          0.071396319    0.14653882    -0.17292159     0.24057172     84.755967    
      4160   83.797809      158.5          158.5          158.5          0.21634765     0.31233772     0.25111497     0.085590259    83.797809    
      4180   87.562338      158.5          158.5          158.5          0.10499276     0.057394378    0.22627282     0.031311076    87.562338    
      4200   83.353453      158.5          158.5          158.5          0.16568325     0.66344912     0.22715116    -0.39355055     83.353453    
      4220   85.669281      158.5          158.5          158.5         -0.10242519    -0.18713683    -0.18719987     0.06706113     85.669281    
      4240   86.64305       158.5          158.5          158.5         -0.66700512    -1.374496      -0.61996241    -0.0065569601   86.64305     
      4260   82.833798      158.5          158.5          158.5          0.24408929     0.30387524     0.13412087     0.29427175     82.833798    
      4280   87.81037       158.5          158.5          158.5          0.63699287     1.1685196      0.60706931     0.13538973     87.81037     
      4300   84.450288      158.5          158.5          158.5         -0.25930578    -0.15685965    -0.050176143   -0.57088156     84.450288    
      4320   84.768377      158.5          158.5          158.5         -0.14207328    -0.45651542    -0.28438174     0.31467732     84.768377    
      4340   86.919471      158.5          158.5          158.5         -0.11587127    -0.19213876    -0.22710693     0.071631873    86.919471    
      4360   83.260953      158.5          158.5          158.5         -0.20925623    -0.21629948     0.057220657   -0.46868987     83.260953    
      4380   86.584349      158.5          158.5          158.5          0.23438892     0.52728293     0.30924627    -0.13336245     86.584349    
      4400   84.374092      158.5          158.5          158.5          0.50971334     0.76591068     0.23504509     0.52818424     84.374092    
      4420   83.955767      158.5          158.5          158.5         -0.29354525    -0.68285832    -0.34200007     0.14422264     83.955767    
      4440   85.719645      158.5          158.5          158.5         -0.51984344    -0.74929717    -0.31872693    -0.49150622     85.719645    
      4460   82.845622      158.5          158.5          158.5          0.390679       0.52454602     0.33700356     0.31048742     82.845622    
      4480   85.175669      158.5          158.5          158.5          0.051161042    0.12027628    -0.034373598    0.067580448    85.175669    
      4500   83.601192      158.5          158.5          158.5          0.077380035    0.17344378     0.15476506    -0.096068733    83.601192    
      4520   83.350347      158.5          158.5          158.5          0.093569204    0.24337122     0.19005199    -0.15271559     83.350347    
      4540   84.706143      158.5          158.5          158.5         -0.38242037    -0.67163375    -0.45189211    -0.023735248    84.706143    
      4560   82.738817      158.5          158.5          158.5         -0.090481091   -0.33845952    -0.21282016     0.27983641     82.738817    
      4580   84.26578       158.5          158.5          158.5          0.32638847     0.71627822     0.42470176    -0.16181457     84.26578     
      4600   83.90172       158.5          158.5          158.5          0.16111343     0.27272048     0.20965039     0.00096940452  83.90172     
      4620   82.791891      158.5          158.5          158.5         -0.22028413    -0.47895009    -0.24726303     0.065360739    82.791891    
      4640   84.988531      158.5          158.5          158.5         -0.040623134   -0.047703545   -0.10741838     0.033252521    84.988531    
      4660   83.037024      158.5          158.5          158.5         -0.14281685    -0.068511042   -0.12616958    -0.23376992     83.037024    
      4680   84.219748      158.5          158.5          158.5         -0.10245429    -0.14177181     0.0092936384  -0.17488469     84.219748    
      4700   85.958018      158.5          158.5          158.5          0.63441892     0.76453749     0.5648616      0.57385767     85.958018    
      4720   82.41508       158.5          158.5          158.5          0.080424958    0.14284384     0.10417251    -0.0057414784   82.41508     
      4740   87.955919      158.5          158.5          158.5         -0.84515084    -1.1124686     -0.98494707    -0.43803683     87.955919    
      4760   84.420033      158.5          158.5          158.5          0.25074212     0.18760952     0.044625536    0.51999129     84.420033    
      4780   84.928804      158.5          158.5          158.5          0.31362455     0.3923029      0.51354794     0.03502281     84.928804    
      4800   88.732338      158.5          158.5          158.5         -0.11233775     0.054554722    0.063287816   -0.45485578     88.732338    
      4820   82.632953      158.5          158.5          158.5          0.17572946     0.39644117     0.30908526    -0.17833806     82.632953    
      4840   88.179155      158.5          158.5          158.5         -0.10285683    -0.3585155     -0.28047955     0.33042455     88.179155    
      4860   85.020937      158.5          158.5          158.5         -0.58669534    -0.88779815    -0.75224068    -0.1200472      85.020937    
      4880   84.869319      158.5          158.5          158.5          0.26023704     0.6171374      0.48550423    -0.3219305      84.869319    
      4900   87.417779      158.5          158.5          158.5          0.65573358     0.74329043     0.65117338     0.57273693     87.417779    
      4920   83.132916      158.5          158.5          158.5         -0.19041418    -0.51118113    -0.27619639     0.21613498     83.132916    
      4940   86.392503      158.5          158.5          158.5         -0.38183528    -0.29613446    -0.38325684    -0.46611453     86.392503    
      4960   84.760592      158.5          158.5          158.5          0.026440114    0.15501839     0.015299717   -0.090997763    84.760592    
      4980   83.82144       158.5          158.5          158.5         -0.12916563    -0.28468907    -0.1911059      0.088298063    83.82144     
      5000   85.874142      158.5          158.5          158.5          0.36463213     0.43173499     0.39760339     0.26455799     85.874142    
      5020   83.300893      158.5          158.5          158.5          0.27571053     0.56400313     0.5126315     -0.24950303     83.300893    
      5040   84.621835      158.5          158.5          158.5         -0.46394044    -0.7083114     -0.62019785    -0.063312079    84.621835    
      5060   84.707876      158.5          158.5          158.5         -0.20203759    -0.45123749    -0.48489667     0.3300214      84.707876    
      5080   82.910057      158.5          158.5          158.5          0.24740754     0.46401471     0.38825222    -0.1100443      82.910057    
      5100   85.495141      158.5          158.5          158.5          0.090711411    0.18854298     0.29954726    -0.21595601     85.495141    
      5120   83.143457      158.5          158.5          158.5         -0.00018917451  0.10037297    -0.082110964   -0.018829535    83.143457    
      5140   84.083279      158.5          158.5          158.5          0.14409948     0.065065017    0.030357155    0.33687628     84.083279    
      5160   84.866238      158.5          158.5          158.5         -0.46134915    -0.63713736    -0.39349984    -0.35341024     84.866238    
      5180   82.560772      158.5          158.5          158.5         -0.091516469   -0.059976708   -0.033808519   -0.18076418     82.560772    
      5200   85.808798      158.5          158.5          158.5          0.61533225     0.69729452     0.53748423     0.61121801     85.808798    
      5220   83.522908      158.5          158.5          158.5          0.064409679    0.13199672     0.0080823857   0.053149929    83.522908    
      5240   84.392576      158.5          158.5          158.5         -0.42096159    -0.58635949    -0.30505921    -0.37146605     84.392576    
      5260   87.104129      158.5          158.5          158.5         -0.1017808     -0.1199916     -0.062339703   -0.12301111     87.104129    
      5280   82.675171      158.5          158.5          158.5          0.016755451   -0.0072136905  -0.17926028     0.23674032     82.675171    
      5300   87.702509      158.5          158.5          158.5          0.073622662    0.094875709    0.14763161    -0.021639331    87.702509    
      5320   86.513142      158.5          158.5          158.5          0.44116953     0.84486322     0.8579388     -0.37929343     86.513142    
      5340   83.672053      158.5          158.5          158.5         -0.022792553   -0.20659606    -0.20530598     0.34352438     83.672053    
      5360   90.126785      158.5          158.5          158.5         -0.86320356    -1.3375784     -1.1941229     -0.057909408    90.126785    
      5380   83.0535        158.5          158.5          158.5          0.34769569     0.47049703     0.33047121     0.24211882     83.0535      
      5400   87.536633      158.5          158.5          158.5          0.29599867     0.62714304     0.65420131    -0.39334833     87.536633    
      5420   87.084908      158.5          158.5          158.5         -0.1140516     -0.30188848     0.060480994   -0.10074732     87.084908    
      5440   83.412708      158.5          158.5          158.5          0.26971132     0.19050811     0.22886788     0.38975795     83.412708    
      5460   87.805977      158.5          158.5          158.5         -0.37558988    -0.11491339    -0.61845888    -0.39339736     87.805977    
      5480   83.36532       158.5          158.5          158.5         -0.36880653    -0.40171093    -0.53582816    -0.1688805      83.36532     
      5500   85.746506      158.5          158.5          158.5          0.46573593     0.35366972     0.63494475     0.40859331     85.746506    
      5520   85.077964      158.5          158.5          158.5          0.47097495     0.4630992      0.63365355     0.31617211     85.077964    
      5540   83.395619      158.5          158.5          158.5         -0.40067964    -0.38501848    -0.52322252    -0.29379793     83.395619    
      5560   85.855386      158.5          158.5          158.5         -0.27976854    -0.22045172    -0.42402877    -0.19482512     85.855386    
      5580   83.182735      158.5          158.5          158.5          0.21654091     0.14555597     0.14185543     0.36221133     83.182735    
      5600   84.586741      158.5          158.5          158.5         -0.16306864    -0.16602583    -0.038434257   -0.28474583     84.586741    
      5620   84.955254      158.5          158.5          158.5          0.23817743     0.36588814     0.51928338    -0.17063924     84.955254    
      5640   82.749265      158.5          158.5          158.5          0.30702368     0.29539377     0.28776253     0.33791474     82.749265    
      5660   85.725769      158.5          158.5          158.5         -0.57376647    -0.68414381    -0.97860341    -0.058552201    85.725769    
      5680   83.544528      158.5          158.5          158.5         -0.14807815    -0.20826966    -0.15641456    -0.079550228    83.544528    
      5700   83.914643      158.5          158.5          158.5          0.37243072     0.54387493     0.6674677     -0.09405047     83.914643    
      5720   86.022702      158.5          158.5          158.5          0.10375526     0.010336871   -0.019989839    0.32091876     86.022702    
      5740   82.460375      158.5          158.5          158.5          0.016775075    0.053098349    0.024242287   -0.027015412    82.460375    
      5760   86.07553       158.5          158.5          158.5         -0.10412204    -0.049803534    0.15591381    -0.41847641     86.07553     
      5780   84.371248      158.5          158.5          158.5         -0.3525515     -0.53068044    -0.60436875     0.077394677    84.371248    
      5800   83.812497      158.5          158.5          158.5          0.057464719    0.11447484    -0.17574945     0.23366877     83.812497    
      5820   87.45638       158.5          158.5          158.5          0.65621282     0.71802643     1.0827307      0.16788135     87.45638     
      5840   82.916662      158.5          158.5          158.5         -0.12740186    -0.12049065    -0.066531292   -0.19518365     82.916662    
      5860   87.007267      158.5          158.5          158.5         -0.54652767    -0.59650857    -1.0593052      0.016230774    87.007267    
      5880   86.079037      158.5          158.5          158.5          0.21964026     0.13428282     0.22742095     0.29721702     86.079037    
      5900   85.055867      158.5          158.5          158.5         -0.1676802      0.12199158     0.18950646    -0.81453864     85.055867    
      5920   91.452953      158.5          158.5          158.5          0.13864414     0.04151701     0.35070664     0.023708755    91.452953    
      5940   84.935118      158.5          158.5          158.5          0.77434158     0.64240978     1.0818846      0.59873037     84.935118    
      5960   89.929037      158.5          158.5          158.5         -0.59935182    -0.48378438    -1.1197431     -0.19452798     89.929037    
      5980   90.572361      158.5          158.5          158.5         -0.86319146    -0.67640782    -1.6476037     -0.26556287     90.572361    
      6000   85.139915      158.5          158.5          158.5          0.68525664     0.55028398     1.088672       0.41681391     85.139915    
      6020   91.903934      158.5          158.5          158.5          0.57850874     0.30319123     0.78991159     0.64242339     91.903934    
      6040   85.096168      158.5          158.5          158.5         -0.28459221    -0.2011592     -0.036432162   -0.61618526     85.096168    
      6060   87.374795      158.5          158.5          158.5         -0.070143024    0.24209924    -0.22517947    -0.22734884     87.374795    
      6080   87.453759      158.5          158.5          158.5         -0.24189191    -0.20379493    -0.67714995     0.15526914     87.453759    
      6100   83.959388      158.5          158.5          158.5         -0.33579204    -0.42536913    -0.37775358    -0.20425342     83.959388    
      6120   88.48428       158.5          158.5          158.5          0.69053725     0.5647272      1.2191507      0.28773386     88.48428     
      6140   83.737628      158.5          158.5          158.5          0.25836018     0.23944937     0.56973308    -0.034101915    83.737628    
      6160   85.320415      158.5          158.5          158.5         -0.526757      -0.53099868    -1.1984874      0.14921505     85.320415    
      6180   86.270775      158.5          158.5          158.5         -0.18698281    -0.096950166   -0.41857411    -0.045424144    86.270775    
      6200   82.830731      158.5          158.5          158.5          0.13497277     0.21310852     0.5020587     -0.31024892     82.830731    
      6220   86.156122      158.5          158.5          158.5          0.017977493   -0.056636979    0.095858624    0.014710834    86.156122    
      6240   84.311774      158.5          158.5          158.5          0.23866575     0.233449       0.35728786     0.12526038     84.311774    
      6260   83.349205      158.5          158.5          158.5          0.2125112      0.084012221    0.25961943     0.29390194     83.349205    
      6280   86.185404      158.5          158.5          158.5         -0.73502268    -0.49035705    -1.1029421     -0.61176893     86.185404    
      6300   82.549587      158.5          158.5          158.5          0.10634477     0.028304205    0.043531274    0.24719883     82.549587    
      6320   84.966518      158.5          158.5          158.5          0.50329188     0.3526208      0.72254867     0.43470618     84.966518    
      6340   84.761638      158.5          158.5          158.5         -0.092792626   -0.034277865   -0.010307235   -0.23379278     84.761638    
      6360   82.788757      158.5          158.5          158.5         -0.061791509   -0.079942752    0.040132746   -0.14556452     82.788757    
      6380   85.952117      158.5          158.5          158.5         -0.095051584    0.010019976   -0.20958436    -0.085590372    85.952117    
      6400   83.149743      158.5          158.5          158.5         -0.2457256     -0.22891905    -0.6499426      0.14168484     83.149743    
      6420   84.384463      158.5          158.5          158.5          0.094239875    0.093564043    0.36274303    -0.17358744     84.384463    
      6440   85.648058      158.5          158.5          158.5          0.49946281     0.37015316     1.0386025      0.089632726    85.648058    
      6460   82.941088      158.5          158.5          158.5         -0.059330725   -0.16366671    -0.46436789     0.45004242     82.941088    
      6480   86.586326      158.5          158.5          158.5         -0.5865063     -0.30820106    -1.0750314     -0.37628644     86.586326    
      6500   84.935295      158.5          158.5          158.5          0.1828646      0.17473393     0.47341851    -0.099558637    84.935295    
      6520   84.425149      158.5          158.5          158.5         -0.041083728    0.0014444862   0.10580913    -0.2305048      84.425149    
      6540   88.45944       158.5          158.5          158.5          0.18902589    -0.0083232238   0.2124327      0.36296818     88.45944     
      6560   83.637589      158.5          158.5          158.5          0.57426753     0.41727318     1.1163766      0.18915278     83.637589    
      6580   88.036498      158.5          158.5          158.5         -0.69378082    -0.27650312    -1.1949253     -0.60991405     88.036498    
      6600   86.407924      158.5          158.5          158.5         -0.39675972    -0.3364307     -1.2352843      0.38143587     86.407924    
      6620   84.905996      158.5          158.5          158.5          0.54393772     0.212269       1.1068047      0.31273943     84.905996    
      6640   89.072571      158.5          158.5          158.5          0.32670881     0.23244623     0.76750655    -0.019826337    89.072571    
      6660   83.631739      158.5          158.5          158.5         -0.26171916    -0.147333      -0.26707546    -0.37074901     83.631739    
      6680   87.310618      158.5          158.5          158.5         -0.011547989   -0.023567548   -0.077533046    0.066456627    87.310618    
      6700   85.549096      158.5          158.5          158.5         -0.21688906    -0.06685001    -0.65991252     0.07609534     85.549096    
      6720   84.133485      158.5          158.5          158.5         -0.34651132    -0.14672403    -0.30286536    -0.58994456     84.133485    
      6740   87.407942      158.5          158.5          158.5          0.69364549     0.31494777     1.2642109      0.50177781     87.407942    
      6760   83.239914      158.5          158.5          158.5          0.29045726     0.077859322    0.38468335     0.40882912     83.239914    
      6780   85.425263      158.5          158.5          158.5         -0.64444429    -0.30113552    -1.3302265     -0.30197083     85.425263    
      6800   85.925751      158.5          158.5          158.5         -0.093211857    0.010115185   -0.12964937    -0.16010139     85.925751    
      6820   82.769679      158.5          158.5          158.5          0.13879314     0.12041914     0.42490417    -0.12894389     82.769679    
      6840   87.010118      158.5          158.5          158.5          0.10825935    -0.051617723   -0.041467962    0.41786373     87.010118    
      6860   84.061898      158.5          158.5          158.5          0.22078035     0.20835832     0.72656989    -0.27258717     84.061898    
      6880   83.97203       158.5          158.5          158.5          0.038253453   -0.030435394    0.13901694     0.0061788161   83.97203     
      6900   86.64509       158.5          158.5          158.5         -0.66966888    -0.35152803    -1.5367368     -0.1207418      86.64509     
      6920   82.537017      158.5          158.5          158.5          0.16178616     0.10895239     0.14204897     0.23435713     82.537017    
      6940   86.344188      158.5          158.5          158.5          0.57294642     0.2333631      1.2499279      0.23554824     86.344188    
      6960   84.981872      158.5          158.5          158.5         -0.25010479    -0.032258804   -0.28185028    -0.43620528     84.981872    
      6980   83.45339       158.5          158.5          158.5          0.0065289506  -0.056218127   -0.22234427     0.29814925     83.45339     
      7000   86.799208      158.5          158.5          158.5         -0.13366671    -0.038856193   -0.17777222    -0.18437173     86.799208    
      7020   83.060318      158.5          158.5          158.5         -0.33531079    -0.13658834    -0.50718014    -0.36216389     83.060318    
      7040   85.73359       158.5          158.5          158.5          0.32372112     0.11078809     0.61610701     0.24426826     85.73359     
      7060   85.472495      158.5          158.5          158.5          0.50871429     0.232405       0.95330827     0.3404296      85.472495    
      7080   83.479233      158.5          158.5          158.5         -0.22267443    -0.16433143    -0.71909936     0.21540748     83.479233    
      7100   87.254989      158.5          158.5          158.5         -0.65050426    -0.15426455    -1.0720289     -0.72521933     87.254989    
      7120   83.723516      158.5          158.5          158.5          0.40795019     0.15395963     0.71966329     0.35022767     83.723516    
      7140   85.837718      158.5          158.5          158.5         -0.030424823   -0.04147335    -0.055824498    0.006023378    85.837718    
      7160   86.602818      158.5          158.5          158.5          0.092698274    0.043264126    0.41131823    -0.17648754     86.602818    
      7180   83.580125      158.5          158.5          158.5          0.43209074     0.2462417      0.93919278     0.11083773     83.580125    
      7200   88.916902      158.5          158.5          158.5         -0.73321558    -0.35426431    -1.5226041     -0.32277834     88.916902    
      7220   84.211839      158.5          158.5          158.5         -0.21378634    -0.1223675     -0.91938118     0.40038966     84.211839    
      7240   87.222132      158.5          158.5          158.5          0.57633557     0.23373785     1.5639419     -0.068672983    87.222132    
      7260   88.199716      158.5          158.5          158.5          0.24590055     0.075552968    0.51926112     0.14288756     88.199716    
      7280   83.036435      158.5          158.5          158.5         -0.27895223    -0.19548548    -0.61021674    -0.031154453    83.036435    
      7300   89.544311      158.5          158.5          158.5         -0.078728868    0.044825304   -0.074408509   -0.2066034      89.544311    
      7320   83.804254      158.5          158.5          158.5         -0.20310249     0.05393026    -0.52324955    -0.13998819     83.804254    
      7340   85.664206      158.5          158.5          158.5         -0.16481595    -0.11241503    -0.17983038    -0.20220244     85.664206    
      7360   86.887853      158.5          158.5          158.5          0.7337735      0.18253686     1.4315027      0.58728092     86.887853    
      7380   82.382909      158.5          158.5          158.5          0.063657002    0.018203543    0.10339536     0.069372106    82.382909    
      7400   86.248447      158.5          158.5          158.5         -0.72646585    -0.17049124    -1.5563106     -0.4525957      86.248447    
      7420   84.00174       158.5          158.5          158.5          0.20213095     0.075665228    0.22445012     0.3062775      84.00174     
      7440   83.420205      158.5          158.5          158.5          0.11087025     0.03653445     0.42471345    -0.12863716     83.420205    
      7460   85.766525      158.5          158.5          158.5          0.015411708   -0.055549037    0.039183595    0.062600565    85.766525    
      7480   82.76964       158.5          158.5          158.5          0.21112288     0.098581737    0.65064355    -0.11585664     82.76964     
      7500   84.580133      158.5          158.5          158.5         -0.1074071     -0.0073341688  -0.37227189     0.057384765    84.580133    
      7520   84.643981      158.5          158.5          158.5         -0.51263926    -0.16597097    -1.2992861     -0.072660697    84.643981    
      7540   82.957453      158.5          158.5          158.5          0.21057724     0.087617476    0.64132046    -0.097206205    82.957453    
      7560   85.62979       158.5          158.5          158.5          0.53369431     0.10820426     1.0544814      0.43839724     85.62979     
      7580   83.517963      158.5          158.5          158.5         -0.25824474    -0.039343168   -0.61769547    -0.11769558     83.517963    
      7600   84.380359      158.5          158.5          158.5         -0.09140002    -0.045713345   -0.14760751    -0.080879204    84.380359    
      7620   85.2029        158.5          158.5          158.5         -0.08526096    -0.024045297    0.0048005474  -0.23653813     85.2029      
      7640   83.265232      158.5          158.5          158.5         -0.2638499     -0.053768056   -0.61921116    -0.11857049     83.265232    
      7660   86.5639        158.5          158.5          158.5          0.49069276     0.092340131    0.86952635     0.51021181     86.5639      
      7680   83.996737      158.5          158.5          158.5          0.36791991     0.15961018     1.026472      -0.082322416    83.996737    
      7700   85.533617      158.5          158.5          158.5         -0.54211467    -0.22802411    -1.3640758     -0.034244059    85.533617    
      7720   86.784753      158.5          158.5          158.5         -0.38271282    -0.057963653   -0.98173528    -0.10843951     86.784753    
      7740   83.229382      158.5          158.5          158.5          0.479712       0.17878466     1.0411708      0.21918052     83.229382    
      7760   88.724876      158.5          158.5          158.5         -0.0040229358  -0.061285583    0.23923511    -0.19001833     88.724876    
      7780   84.844147      158.5          158.5          158.5          0.012715429   -0.011056402    0.39204409    -0.3428414      84.844147    
      7800   85.741438      158.5          158.5          158.5          0.37683734     0.12686644     0.47361621     0.53002938     85.741438    
      7820   89.744718      158.5          158.5          158.5         -0.97338173    -0.18596188    -2.0273501     -0.70683323     89.744718    
      7840   82.859632      158.5          158.5          158.5          0.077170697    0.027431028   -0.096694636    0.3007757      82.859632    
      7860   89.063339      158.5          158.5          158.5          0.66450216     0.11075434     1.6418386      0.24091351     89.063339    
      7880   86.15149       158.5          158.5          158.5          0.13511953    -0.01040555     0.12333396     0.29243017     86.15149     
      7900   83.176523      158.5          158.5          158.5         -0.28512545    -0.051519753   -0.56763953    -0.23621708     83.176523    
      7920   86.87816       158.5          158.5          158.5         -0.085295217    0.035181731   -0.057150277   -0.2339171      86.87816     
      7940   82.665015      158.5          158.5          158.5         -0.10705201    -0.0076276956  -0.40279053     0.089262208    82.665015    
      7960   84.860837      158.5          158.5          158.5         -0.028374872   -0.050486716    0.052941407   -0.087579309    84.860837    
      7980   84.639072      158.5          158.5          158.5          0.56121202     0.09815456     1.2590444      0.32643707     84.639072    
      8000   82.64579       158.5          158.5          158.5         -0.17008427    -0.028584701   -0.33843822    -0.14322988     82.64579     
      8020   85.192925      158.5          158.5          158.5         -0.47911921    -0.062440998   -1.2765616     -0.098354998    85.192925    
      8040   83.01052       158.5          158.5          158.5          0.20871578     0.061111866    0.38704453     0.17799093     83.01052     
      8060   83.848145      158.5          158.5          158.5          0.076401264   -0.0084427564   0.45276002    -0.21511347     83.848145    
      8080   84.751688      158.5          158.5          158.5          0.052339931   -0.041954781    0.069773503    0.12920107     84.751688    
      8100   82.809671      158.5          158.5          158.5          0.17301173     0.058512871    0.4708492     -0.010326866    82.809671    
      8120   84.992969      158.5          158.5          158.5         -0.19681561    -0.00021985503 -0.59844173     0.0082147557   84.992969    
      8140   83.89344       158.5          158.5          158.5         -0.51426227    -0.072354334   -1.1292977     -0.34113475     83.89344     
      8160   83.718393      158.5          158.5          158.5          0.43829769     0.069897734    0.99230249     0.25269286     83.718393    
      8180   85.887954      158.5          158.5          158.5          0.47497089     0.055550105    0.86837987     0.50098268     85.887954    
      8200   83.276541      158.5          158.5          158.5         -0.38921888    -0.05409315    -0.74993181    -0.36363167     83.276541    
      8220   86.299916      158.5          158.5          158.5         -0.075504588   -0.016152767   -0.066770357   -0.14359064     86.299916    
      8240   84.864146      158.5          158.5          158.5         -0.11233008     0.016220507   -0.20073524    -0.15247551     84.864146    
      8260   84.50577       158.5          158.5          158.5         -0.17042258    -0.06440422    -0.55899905     0.11213552     84.50577     
      8280   88.132004      158.5          158.5          158.5          0.50977151     0.086431585    1.3766078      0.066275128    88.132004    
      8300   82.936411      158.5          158.5          158.5          0.2891255      0.10622073     0.70587774     0.055278035    82.936411    
      8320   87.99933       158.5          158.5          158.5         -0.64301531    -0.23798505    -1.9499228      0.2588619      87.99933     
      8340   85.326943      158.5          158.5          158.5         -0.20981931    -0.017084146   -0.31086995    -0.30150383     85.326943    
      8360   84.269302      158.5          158.5          158.5          0.48328627     0.1210693      1.3561075     -0.027317958    84.269302    
      8380   88.829396      158.5          158.5          158.5         -0.028164897   -0.044132945   -0.25204133     0.21167959     88.829396    
      8400   82.883461      158.5          158.5          158.5          0.15446392     0.020787474    0.48631089    -0.043706592    82.883461    
      8420   86.53646       158.5          158.5          158.5          0.040703066    0.027586145    0.21628324    -0.12176018     86.53646     
      8440   86.295098      158.5          158.5          158.5         -0.76131816    -0.026193384   -1.7929142     -0.46484684     86.295098    
      8460   82.894823      158.5          158.5          158.5          0.26710054     0.01885648     0.24975953     0.53268562     82.894823    
      8480   86.536505      158.5          158.5          158.5          0.57113158     0.031767023    1.4771913      0.20443642     86.536505    
      8500   83.703563      158.5          158.5          158.5         -0.17205099    -0.021012042   -0.28643929    -0.20870164     83.703563    
      8520   83.639746      158.5          158.5          158.5         -0.18125154     0.0011756286  -0.57947046     0.03454021     83.639746    
      8540   85.12413       158.5          158.5          158.5         -0.023054426   -0.0046231728   0.037408892   -0.101949       85.12413     
      8560   82.657928      158.5          158.5          158.5         -0.1537458     -0.0088234714  -0.36032967    -0.092084248    82.657928    
      8580   84.548506      158.5          158.5          158.5          0.097598576   -0.00057354133  0.33502649    -0.04165722     84.548506    
      8600   83.694813      158.5          158.5          158.5          0.43468357     0.034609152    0.99315747     0.2762841      83.694813    
      8620   83.125308      158.5          158.5          158.5         -0.19874104    -0.0079488101  -0.66732229     0.079047973    83.125308    
      8640   84.779081      158.5          158.5          158.5         -0.48235376    -0.057497334   -1.0115784     -0.37798557     84.779081    
      8660   82.840796      158.5          158.5          158.5          0.33255594     0.040491799    0.73126431     0.22591172     82.840796    
      8680   84.539551      158.5          158.5          158.5          0.082382331    0.00033472386  0.20612206     0.040690208    84.539551    
      8700   84.011679      158.5          158.5          158.5          0.017414007   -0.00082050882  0.04949458     0.0035679497   84.011679    
      8720   83.267825      158.5          158.5          158.5          0.17093857     0.010893301    0.57300038    -0.071077978    83.267825    
      8740   85.304542      158.5          158.5          158.5         -0.39891516    -0.02234319    -0.93188842    -0.24251386     85.304542    
      8760   83.125612      158.5          158.5          158.5         -0.22241475     0.0061991126  -0.87045289     0.19700953     83.125612    
      8780   84.920088      158.5          158.5          158.5          0.43153412     0.015011949    1.1881499      0.091440543    84.920088    
      8800   85.117882      158.5          158.5          158.5          0.33254198     0.0018352599   0.81244468     0.18334601     85.117882    
      8820   83.078574      158.5          158.5          158.5         -0.40070789    -0.007133982   -0.92085489    -0.27413478     83.078574    
      8840   86.896123      158.5          158.5          158.5         -0.041796202    0.017095055   -0.26986995     0.12738629     86.896123    
      8860   83.590887      158.5          158.5          158.5         -0.19020761    -0.0004748307  -0.26790332    -0.3022447      83.590887    
      8880   84.948071      158.5          158.5          158.5         -0.12524845    -0.01572305    -0.10278215    -0.25724014     84.948071    
      8900   87.178092      158.5          158.5          158.5          0.61630863     0.044187983    1.3257855      0.47895244     87.178092    
      8920   82.690241      158.5          158.5          158.5          0.21141804     0.030556105    0.29425117     0.30944684     82.690241    
      8940   87.810648      158.5          158.5          158.5         -0.75151115    -0.11377052    -1.8505367     -0.29022622     87.810648    
      8960   84.585032      158.5          158.5          158.5         -0.049657631    0.0017773242   0.08120171    -0.23195193     84.585032    
      8980   84.428985      158.5          158.5          158.5          0.49687129     0.058704895    1.0165131      0.41539583     84.428985    
      9000   88.294799      158.5          158.5          158.5         -0.071341784   -0.0063615054  -0.22333806     0.015674213    88.294799    
      9020   82.870709      158.5          158.5          158.5          0.16089948     0.039596641    0.73426476    -0.29116297     82.870709    
      9040   86.810601      158.5          158.5          158.5         -0.082991416   -0.0059566617  -0.1736054     -0.069412184    86.810601    
      9060   85.673256      158.5          158.5          158.5         -0.65716576    -0.060298475   -1.7846727     -0.12652616     85.673256    
      9080   83.404461      158.5          158.5          158.5          0.36575297     0.023267353    0.66012041     0.41387116     83.404461    
      9100   86.938664      158.5          158.5          158.5          0.46786474     0.013669631    1.4786508     -0.0887262      86.938664    
      9120   83.389126      158.5          158.5          158.5         -0.16207448     0.004797683   -0.5832287      0.092207581    83.389126    
      9140   84.115148      158.5          158.5          158.5         -0.17600479     0.0025666535  -0.53139536     0.00081433147  84.115148    
      9160   84.496414      158.5          158.5          158.5         -0.03303467    -0.0045404103   0.11299207    -0.20755567     84.496414    
      9180   82.80093       158.5          158.5          158.5         -0.16508445    -0.00019036186 -0.37048539    -0.1245776      82.80093     
      9200   84.352066      158.5          158.5          158.5          0.16524636     0.0067977229   0.38143033     0.10751102     84.352066    
      9220   83.29361       158.5          158.5          158.5          0.43020474     0.013653217    0.9319017      0.34505931     83.29361     
      9240   83.275205      158.5          158.5          158.5         -0.34261099    -0.0107248     -0.79618761    -0.22092056     83.275205    
      9260   84.212655      158.5          158.5          158.5         -0.33004517    -0.021347645   -0.77133391    -0.19745396     84.212655    
      9280   82.762603      158.5          158.5          158.5          0.32297731     0.0092404806   0.67044695     0.28924451     82.762603    
      9300   84.369099      158.5          158.5          158.5          0.016835314    0.011423312    0.089499905   -0.050417274    84.369099    
[...]
     97640   87.578759      158.5          158.5          158.5          0.031333383    0.089438577   -0.37024912     0.3748107      87.578759    
     97660   83.27359       158.5          158.5          158.5          0.13160292     0.20822151     0.19940847    -0.01282122     83.27359     
     97680   84.968252      158.5          158.5          158.5         -0.25765463    -0.59832585     0.061154323   -0.23579236     84.968252    
     97700   84.062286      158.5          158.5          158.5          0.1676695      0.13475821     0.37027785    -0.0020275555   84.062286    
     97720   84.108305      158.5          158.5          158.5          0.315061       0.47983174     0.21829074     0.24706053     84.108305    
     97740   85.584112      158.5          158.5          158.5         -0.48892552    -0.38403116    -1.0571817     -0.02556366     85.584112    
     97760   83.297368      158.5          158.5          158.5         -0.11049665    -0.0017504908  -0.042663109   -0.28707636     83.297368    
     97780   84.146776      158.5          158.5          158.5          0.46426207     0.26821756     0.84356571     0.28100294     84.146776    
     97800   83.317675      158.5          158.5          158.5          0.06403735    -0.14141152     0.17041615     0.16310741     83.317675    
     97820   85.120391      158.5          158.5          158.5         -0.37200348     0.048352402   -0.67610922    -0.48825361     85.120391    
     97840   83.809453      158.5          158.5          158.5         -0.029945026    0.044359987   -0.24088875     0.10669369     83.809453    
     97860   82.881578      158.5          158.5          158.5          0.29801222     0.097902652    0.51197233     0.28416167     82.881578    
     97880   84.950584      158.5          158.5          158.5         -0.085015881   -0.12277828     0.10877291    -0.24104227     84.950584    
     97900   83.85906       158.5          158.5          158.5         -0.12599253    -0.42031676    -0.074978174    0.11731734     83.85906     
     97920   84.676174      158.5          158.5          158.5          0.18994686     0.51053515    -0.12784131     0.18714676     84.676174    
     97940   83.049272      158.5          158.5          158.5         -0.23667215     0.10726061    -0.39551628    -0.42176079     83.049272    
     97960   85.142156      158.5          158.5          158.5         -0.068494944   -0.70940169     0.33070836     0.1732085      85.142156    
     97980   85.117828      158.5          158.5          158.5          0.44672018     0.50913136     0.51243202     0.31859714     85.117828    
     98000   84.003076      158.5          158.5          158.5         -0.23937899     0.14851222    -0.39650451    -0.47014468     84.003076    
     98020   84.825683      158.5          158.5          158.5         -0.3159973     -0.61685169    -0.36952662     0.038386426    84.825683    
     98040   84.589988      158.5          158.5          158.5          0.33409737     0.50495957     0.22991765     0.26741489     84.589988    
     98060   87.630988      158.5          158.5          158.5          0.042522754    0.17212689     0.14898052    -0.19353914     87.630988    
     98080   83.460786      158.5          158.5          158.5          0.0083562995  -0.38582283     0.0096731436   0.40121858     83.460786    
     98100   85.466683      158.5          158.5          158.5         -0.16688506     0.2952905     -0.4685992     -0.3273465      85.466683    
     98120   84.1139        158.5          158.5          158.5         -0.077105993    0.13754251     0.019341751   -0.38820224     84.1139      
     98140   88.267532      158.5          158.5          158.5          0.27388115    -0.50785935     0.42664394     0.90285886     88.267532    
     98160   86.474645      158.5          158.5          158.5         -0.21754067     0.00044685211  0.020602396   -0.67367125     86.474645    
     98180   85.403268      158.5          158.5          158.5         -0.034320617    0.32835102    -0.25716897    -0.1741439      85.403268    
     98200   86.179967      158.5          158.5          158.5         -0.16420116    -0.0264258     -0.03276764    -0.43341005     86.179967    
     98220   83.975632      158.5          158.5          158.5          0.31244912    -0.20815687     0.19260538     0.95289885     83.975632    
     98240   85.163802      158.5          158.5          158.5          0.088586359    0.24884064     0.23493954    -0.2180211      85.163802    
     98260   82.042804      158.5          158.5          158.5         -0.10793474    -0.0043243747  -0.13985516    -0.17962469     82.042804    
     98280   84.250356      158.5          158.5          158.5         -0.094109918   -0.086526146   -0.33067065     0.13486704     84.250356    
     98300   82.745033      158.5          158.5          158.5          0.080573892    0.25857522     0.12974885    -0.14660239     82.745033    
     98320   84.157717      158.5          158.5          158.5          0.10771436    -0.1386501     -0.033633693    0.49542686     84.157717    
     98340   83.567001      158.5          158.5          158.5         -0.28987443    -0.41227517     0.15963778    -0.61698591     83.567001    
     98360   82.224426      158.5          158.5          158.5          0.20124085     0.31947044    -0.083567352    0.36781946     82.224426    
     98380   83.269994      158.5          158.5          158.5          0.003036022    0.15854535     0.060311569   -0.20974886     83.269994    
     98400   81.508456      158.5          158.5          158.5         -0.1004259     -0.44943241    -0.054260392    0.20241511     81.508456    
     98420   81.650213      158.5          158.5          158.5         -0.024321863    0.17696787     0.12047135    -0.37040481     81.650213    
     98440   82.032435      158.5          158.5          158.5          0.17708701     0.23473448     0.10677853     0.18974803     82.032435    
     98460   81.190033      158.5          158.5          158.5          0.006285218   -0.32620267    -0.00031715468  0.34537548     81.190033    
     98480   82.265508      158.5          158.5          158.5         -0.061844674    0.1357488     -0.16978467    -0.15149816     82.265508    
     98500   81.330272      158.5          158.5          158.5         -0.025855809    0.24868648    -0.14481501    -0.18143891     81.330272    
     98520   82.467064      158.5          158.5          158.5         -0.11243216    -0.36960396     0.130109      -0.097801518    82.467064    
     98540   81.886376      158.5          158.5          158.5          0.23561445     0.01252443     0.044094912    0.650224       81.886376    
     98560   82.10167       158.5          158.5          158.5         -0.0068102645   0.32853569     0.10533371    -0.4543002      82.10167     
     98580   83.665584      158.5          158.5          158.5         -0.21654137    -0.3431698     -0.24668529    -0.059769017    83.665584    
     98600   81.965154      158.5          158.5          158.5         -0.1364178     -0.10951114     0.21455074    -0.514293       81.965154    
     98620   83.31975       158.5          158.5          158.5          0.3998838      0.43816887     0.045987093    0.71549545     83.31975     
     98640   82.691525      158.5          158.5          158.5         -0.050339931   -0.27380416     0.18459971    -0.061815339    82.691525    
     98660   82.877981      158.5          158.5          158.5         -0.21157778    -0.16072838    -0.31733968    -0.15666529     82.877981    
     98680   83.158006      158.5          158.5          158.5         -0.073760622    0.49422137    -0.18575087    -0.52975237     83.158006    
     98700   81.959608      158.5          158.5          158.5          0.14308411    -0.22668266     0.15652862     0.49940637     81.959608    
     98720   83.924898      158.5          158.5          158.5          0.26551711    -0.17694016     0.45060905     0.52288245     83.924898    
     98740   81.956743      158.5          158.5          158.5          0.08040468     0.45672537     0.18291765    -0.39842899     81.956743    
     98760   84.642521      158.5          158.5          158.5         -0.39420066    -0.14379865    -0.62210587    -0.41669747     84.642521    
     98780   83.166294      158.5          158.5          158.5         -0.13512229    -0.36955743    -0.26306811     0.22725868     83.166294    
     98800   85.622986      158.5          158.5          158.5          0.56977524     0.66454535     0.74290699     0.30187339     85.622986    
     98820   85.0778        158.5          158.5          158.5         -0.013637381   -0.32920653     0.089395786    0.1988986      85.0778      
     98840   85.53412       158.5          158.5          158.5         -0.38867889     0.11187225    -0.6548734     -0.62303551     85.53412     
     98860   85.272675      158.5          158.5          158.5         -0.11516231    -0.34853561    -0.44705672     0.45010538     85.272675    
     98880   82.525642      158.5          158.5          158.5          0.30502811     0.30036069     0.38302043     0.23170322     82.525642    
     98900   85.05971       158.5          158.5          158.5         -0.014998986    0.24982458     0.37308485    -0.66790639     85.05971     
     98920   84.245414      158.5          158.5          158.5         -0.18146537    -0.77207784     0.046689511    0.18099221     84.245414    
     98940   85.14902       158.5          158.5          158.5          0.23283063     0.72583867    -0.21961926     0.19227249     85.14902     
     98960   83.459266      158.5          158.5          158.5         -0.23081601    -0.061150938   -0.57988623    -0.051410874    83.459266    
     98980   83.849682      158.5          158.5          158.5         -0.19855809    -0.69375509     0.15600428    -0.057923469    83.849682    
     99000   85.356363      158.5          158.5          158.5          0.56214865     0.91674487     0.73541236     0.034288739    85.356363    
     99020   82.883515      158.5          158.5          158.5         -0.14307518    -0.22782378    -0.13891842    -0.062483352    82.883515    
     99040   84.735407      158.5          158.5          158.5         -0.46845795    -0.81174324    -0.67403251     0.080401912    84.735407    
     99060   84.018031      158.5          158.5          158.5          0.46107602     0.98780555     0.17373923     0.22168328     84.018031    
     99080   84.30253       158.5          158.5          158.5         -0.12679178    -0.31165037     0.30336874    -0.37209372     84.30253     
     99100   83.299506      158.5          158.5          158.5         -0.12931224    -0.52990839     0.2188189     -0.076847221    83.299506    
     99120   85.162137      158.5          158.5          158.5          0.44517098     1.0569405     -0.19641933     0.47499176     85.162137    
     99140   84.428654      158.5          158.5          158.5         -0.63958911    -0.69174851    -0.79759938    -0.42941945     84.428654    
     99160   83.743682      158.5          158.5          158.5          0.17777604    -0.17504178     0.5297317      0.17863819     83.743682    
     99180   85.561625      158.5          158.5          158.5          0.56270277     0.51664453     0.60702407     0.56443971     85.561625    
     99200   83.445223      158.5          158.5          158.5         -0.52011649    -0.25921926    -0.48900203    -0.81212817     83.445223    
     99220   85.708829      158.5          158.5          158.5         -0.039400544    0.076960858   -0.32149305     0.12633056     85.708829    
     99240   84.729384      158.5          158.5          158.5          0.19226799    -0.24331038     0.033800733    0.78631361     84.729384    
     99260   86.42266       158.5          158.5          158.5          0.14506184     0.4052274      0.60011926    -0.57016113     86.42266     
     99280   84.651529      158.5          158.5          158.5         -0.64218696    -0.66451985    -0.29500281    -0.96703823     84.651529    
     99300   86.51407       158.5          158.5          158.5          0.7151969      0.78067305     0.19907537     1.1658423      86.51407     
     99320   84.638706      158.5          158.5          158.5         -0.44822092    -0.41043508    -0.49929058    -0.4349371      84.638706    
     99340   84.184074      158.5          158.5          158.5         -0.22309521    -0.34733989     0.20697587    -0.5289216      84.184074    
     99360   87.292312      158.5          158.5          158.5          0.61258896     0.66473769     0.28775962     0.88526958     87.292312    
     99380   82.960526      158.5          158.5          158.5         -0.27546172    -0.385177       0.1140487     -0.55525685     82.960526    
     99400   86.052774      158.5          158.5          158.5         -0.16512776    -0.081727516   -0.19203899    -0.22161677     86.052774    
     99420   84.998072      158.5          158.5          158.5          0.12731787     0.50090469    -0.72180091     0.60284983     84.998072    
     99440   84.333041      158.5          158.5          158.5          0.073916647   -0.25101969     0.66171855    -0.18894892     84.333041    
     99460   83.544919      158.5          158.5          158.5         -0.15594279    -0.33359752     0.30819141    -0.44242225     83.544919    
     99480   82.908766      158.5          158.5          158.5          0.075676127    0.37074716    -0.52230437     0.37858559     82.908766    
     99500   84.715695      158.5          158.5          158.5          0.043081595   -0.0862904      0.35186004    -0.13632486     84.715695    
     99520   82.741294      158.5          158.5          158.5          0.058397451   -0.11369907    -0.10528522     0.39417664     82.741294    
     99540   82.127468      158.5          158.5          158.5         -0.16076197     0.34921834    -0.21432196    -0.61718229     82.127468    
     99560   82.63322       158.5          158.5          158.5          0.0045111418  -0.30454983     0.28459475     0.03348851     82.63322     
     99580   82.285213      158.5          158.5          158.5          0.25327203    -0.11297161     0.18667565     0.68611204     82.285213    
     99600   82.486463      158.5          158.5          158.5         -0.078009752    0.48722718    -0.11668103    -0.6045754      82.486463    
     99620   83.045769      158.5          158.5          158.5         -0.26549524    -0.37787388    -0.50470297     0.086091123    83.045769    
     99640   82.270039      158.5          158.5          158.5         -0.042644444   -0.10806911     0.25174154    -0.27160577     82.270039    
     99660   83.451697      158.5          158.5          158.5          0.44727797     0.41551551     0.31373951     0.61257888     83.451697    
     99680   82.289565      158.5          158.5          158.5         -0.13740512    -0.044783488    0.065706339   -0.43313821     82.289565    
     99700   83.558118      158.5          158.5          158.5         -0.32482553    -0.3737591     -0.77222049     0.17150298     83.558118    
     99720   82.125505      158.5          158.5          158.5          0.029313329    0.46622587     0.10060472    -0.47889061     82.125505    
     99740   82.756844      158.5          158.5          158.5          0.31840378     0.0089891729   0.34437337     0.60184879     82.756844    
     99760   82.661217      158.5          158.5          158.5          0.025418977   -0.27565136     0.26137826     0.090530036    82.661217    
     99780   82.206502      158.5          158.5          158.5         -0.12514389     0.23928525    -0.35180235    -0.26291457     82.206502    
     99800   82.580698      158.5          158.5          158.5         -0.23235137    -0.036224043   -0.39610621    -0.26472386     82.580698    
     99820   82.560057      158.5          158.5          158.5          0.14070421    -0.19849013     0.31330831     0.30729445     82.560057    
     99840   84.30331       158.5          158.5          158.5          0.34311563     0.32079096     0.17615968     0.53239624     84.30331     
     99860   83.909036      158.5          158.5          158.5         -0.38910198    -0.11247306     0.21474867    -1.2695816      83.909036    
     99880   84.223081      158.5          158.5          158.5         -0.023423936   -0.17441867    -0.67397165     0.77811851     84.223081    
     99900   82.064875      158.5          158.5          158.5          0.24792352     0.32473423     0.12237362     0.2966627      82.064875    
     99920   84.118273      158.5          158.5          158.5         -0.013084594   -0.063505509    0.66834588    -0.64409416     84.118273    
     99940   84.433945      158.5          158.5          158.5          0.0041434919   0.27644569    -0.48980915     0.22579394     84.433945    
     99960   82.321681      158.5          158.5          158.5         -0.050941451    0.034121216   -0.095413626   -0.091531944    82.321681    
     99980   85.123818      158.5          158.5          158.5         -0.067969095   -0.81305962     0.51514391     0.094008428    85.123818    
    100000   82.603671      158.5          158.5          158.5          0.27418164     0.47859823     0.068148073    0.2757986      82.603671    
    100020   84.388378      158.5          158.5          158.5         -0.31620264     0.46535622    -0.58853619    -0.82542797     84.388378    
    100040   82.932708      158.5          158.5          158.5          0.0039918298  -0.342621       0.33464816     0.019948329    82.932708    
    100056   82.66772       158.5          158.5          158.5          0.13002693     0.080628981   -0.071282324    0.38073412     82.66772     
Loop time of 4.61647 on 1 procs for 100000 steps with 4 atoms

Performance: 1871.559 ns/day, 0.013 hours/ns, 21661.563 timesteps/s, 86.646 katom-step/s
22.7% CPU use with 1 MPI tasks x no OpenMP threads

MPI task timing breakdown:
Section |  min time  |  avg time  |  max time  |%varavg| %total
---------------------------------------------------------------
Pair    | 0.039381   | 0.039381   | 0.039381   |   0.0 |  0.85
Bond    | 0.088158   | 0.088158   | 0.088158   |   0.0 |  1.91
Neigh   | 0.0068466  | 0.0068466  | 0.0068466  |   0.0 |  0.15
Comm    | 0.031011   | 0.031011   | 0.031011   |   0.0 |  0.67
Output  | 2.0184     | 2.0184     | 2.0184     |   0.0 | 43.72
Modify  | 2.3433     | 2.3433     | 2.3433     |   0.0 | 50.76
Other   |            | 0.08939    |            |       |  1.94

Nlocal:              4 ave           4 max           4 min
Histogram: 1 0 0 0 0 0 0 0 0 0
Nghost:              0 ave           0 max           0 min
Histogram: 1 0 0 0 0 0 0 0 0 0
Neighs:              2 ave           2 max           2 min
Histogram: 1 0 0 0 0 0 0 0 0 0
FullNghs:            0 ave           0 max           0 min
Histogram: 1 0 0 0 0 0 0 0 0 0

Total # of neighbors = 2
Ave neighs/atom = 0.5
Ave special neighs/atom = 3
Neighbor list builds = 266
Dangerous builds = 1

# Access cumulative reaction counts after the simulation
variable react1_count equal f_3[1]
#variable react2_count equal f_3[2]
#variable react3_count equal f_3[3]
#variable react4_count equal f_3[4]

# Output cumulative reaction counts
print "Cumulative reaction count for reac1to2: ${react1_count}"
Cumulative reaction count for reac1to2: 1
#print "Cumulative reaction count for reac2to3: ${react2_count}"
#print "Cumulative reaction count for reac3to2: ${react3_count}"
#print "Cumulative reaction count for reac2to1: ${react4_count}"

#####################################################
print "All done"
All done
Total wall time: 0:00:05
