read_data	InitialFile.txt
Reading data file ...
  orthogonal box = (0 0 0) to (158.5 158.5 158.5)
  1 by 1 by 1 MPI processor grid
WARNING: Atom style in data file atomic differs from currently defined atom style molecular (src/src/read_data.cpp:621)
  reading atoms ...
  100 atoms
  scanning bonds ...
  1 = max bonds/atom
  scanning angles ...
  1 = max angles/atom
  scanning dihedrals ...
  1 = max dihedrals/atom
  reading bonds ...
  99 bonds
  reading angles ...
  98 angles
  reading dihedrals ...
  97 dihedrals
Finding 1-2 1-3 1-4 neighbors ...
  special bond factors lj:    0        0        0       
  special bond factors coul:  0        0        0       
     2 = max # of 1-2 neighbors
     2 = max # of 1-3 neighbors
     4 = max # of 1-4 neighbors
     6 = max # of special neighbors
  special bonds CPU = 0.004 seconds
  read_data CPU = 0.013 seconds

# Dreiding potential information
neighbor	0.4 bin
neigh_modify	every 10 one 10000

bond_style      harmonic
bond_coeff	1 350 1.53
bond_coeff	2 700 1.53

angle_style     harmonic
angle_coeff	1 60 109.5
angle_coeff	2 120 109.5

dihedral_style	multi/harmonic
dihedral_coeff	1 1.73 -4.49 0.776 6.99 0.0
dihedral_coeff	2 1.73 -4.49 0.776 6.99 0.0

pair_style	lj/cut 10.5


pair_coeff	* * 1.0 1.0 10.5
pair_coeff	3 3 2.0 2.0 10.5

compute csym all centro/atom fcc
compute peratom all pe/atom



#####################################################
# Equilibration (Langevin dynamics at 300 K)

velocity 	all create 300.0 1231
fix		1 all nve/limit 0.05
fix		2 all langevin 300.0 300.0 10.0 904297
thermo_style	custom step temp
thermo          10000
timestep	1
run		1000000
Generated 0 of 3 mixed pair_coeff terms from geometric mixing rule
Neighbor list info ...
  update: every = 10 steps, delay = 0 steps, check = yes
  max neighbors/atom: 10000, page size: 100000
  master list distance cutoff = 10.9
  ghost atom cutoff = 10.9
  binsize = 5.45, bins = 30 30 30
  2 neighbor lists, perpetual/occasional/extra = 1 1 0
  (1) pair lj/cut, perpetual
      attributes: half, newton on
      pair build: half/bin/newton
      stencil: half/bin/3d
      bin: standard
  (2) compute centro/atom, occasional
      attributes: full, newton on
      pair build: full/bin
      stencil: full/bin/3d
      bin: standard
Per MPI rank memory allocation (min/avg/max) = 8.15 | 8.15 | 8.15 Mbytes
   Step          Temp     
         0   300          
     10000   290.80665    
     20000   269.97327    
     30000   285.31297    
     40000   317.97625    
     50000   331.32515    
     60000   294.7216     
     70000   360.09699    
     80000   293.39662    
     90000   281.9562     
    100000   304.22587    
    110000   279.95094    
    120000   327.9643     
    130000   281.24689    
    140000   281.25863    
    150000   277.0373     
    160000   284.21592    
    170000   278.49062    
    180000   279.06631    
    190000   287.82296    
    200000   284.59063    
    210000   295.44033    
    220000   302.88155    
    230000   296.95557    
    240000   334.47598    
    250000   293.46965    
    260000   278.19799    
    270000   275.96523    
    280000   298.29243    
    290000   321.29464    
    300000   297.5325     
    310000   300.68113    
    320000   277.33126    
    330000   260.2972     
    340000   297.20392    
    350000   301.56426    
    360000   320.76743    
    370000   319.61249    
    380000   285.38516    
    390000   288.88838    
    400000   310.76538    
    410000   297.24597    
    420000   326.11938    
    430000   316.13591    
    440000   318.79189    
    450000   342.19859    
    460000   331.34181    
    470000   318.6757     
    480000   297.70914    
    490000   296.95039    
    500000   327.58854    
    510000   308.55995    
    520000   324.64518    
    530000   306.00437    
    540000   326.70742    
    550000   290.60851    
    560000   303.16715    
    570000   294.13061    
    580000   314.25892    
    590000   283.20409    
    600000   279.40363    
    610000   356.80721    
    620000   314.6953     
    630000   302.91663    
    640000   294.78345    
    650000   303.87397    
    660000   367.38773    
    670000   343.11805    
    680000   301.554      
    690000   282.02716    
    700000   290.35809    
    710000   372.67092    
    720000   294.94717    
    730000   290.78535    
    740000   303.85402    
    750000   333.54176    
    760000   271.88261    
    770000   289.59651    
    780000   307.57259    
    790000   343.79966    
    800000   315.91633    
    810000   326.28892    
    820000   332.36813    
    830000   317.4513     
    840000   330.28261    
    850000   290.44724    
    860000   299.09256    
    870000   310.19212    
    880000   317.14425    
    890000   298.40456    
    900000   362.36274    
    910000   279.20888    
    920000   296.15282    
    930000   282.97992    
    940000   325.23517    
    950000   295.38656    
    960000   300.0955     
    970000   287.2869     
    980000   329.02841    
    990000   262.54443    
   1000000   278.89298    
Loop time of 25.5289 on 1 procs for 1000000 steps with 100 atoms

Performance: 3384.395 ns/day, 0.007 hours/ns, 39171.238 timesteps/s, 3.917 Matom-step/s
96.3% CPU use with 1 MPI tasks x no OpenMP threads

MPI task timing breakdown:
Section |  min time  |  avg time  |  max time  |%varavg| %total
---------------------------------------------------------------
Pair    | 7.3975     | 7.3975     | 7.3975     |   0.0 | 28.98
Bond    | 12.614     | 12.614     | 12.614     |   0.0 | 49.41
Neigh   | 2.008      | 2.008      | 2.008      |   0.0 |  7.87
Comm    | 0.19421    | 0.19421    | 0.19421    |   0.0 |  0.76
Output  | 0.0023974  | 0.0023974  | 0.0023974  |   0.0 |  0.01
Modify  | 2.9853     | 2.9853     | 2.9853     |   0.0 | 11.69
Other   |            | 0.3275     |            |       |  1.28

Nlocal:            100 ave         100 max         100 min
Histogram: 1 0 0 0 0 0 0 0 0 0
Nghost:              0 ave           0 max           0 min
Histogram: 1 0 0 0 0 0 0 0 0 0
Neighs:            651 ave         651 max         651 min
Histogram: 1 0 0 0 0 0 0 0 0 0
FullNghs:            0 ave           0 max           0 min
Histogram: 1 0 0 0 0 0 0 0 0 0

Total # of neighbors = 651
Ave neighs/atom = 6.51
Ave special neighs/atom = 5.88
Neighbor list builds = 37904
Dangerous builds = 51
unfix 1
unfix 2
write_restart 	restart.${simname}.dreiding1
write_restart 	restart.InitialFile.dreiding1
System init for write_restart ...
Generated 0 of 3 mixed pair_coeff terms from geometric mixing rule


#####################################################
# Define Settings
compute eng all pe/atom
compute eatoms all reduce sum c_eng

#####################################################
# Minimization

dump mydmp all atom 100 dump.lammpstrj

reset_timestep 0
fix 1 all nvt temp 500.0 500.0 100.0
thermo 20
thermo_style custom step pe lx ly lz press pxx pyy pzz c_eatoms
min_style cg
minimize 1e-25 1e-25 500000 1000000
Switching to 'neigh_modify every 1 delay 0 check yes' setting during minimization
Generated 0 of 3 mixed pair_coeff terms from geometric mixing rule
Per MPI rank memory allocation (min/avg/max) = 9.275 | 9.275 | 9.275 Mbytes
   Step         PotEng           Lx             Ly             Lz           Press           Pxx            Pyy            Pzz          c_eatoms   
         0   101.5443       158.5          158.5          158.5         -1.7991158     -1.8825927     -5.5896643      2.0749097      101.5443     
        20   26.218084      158.5          158.5          158.5          0.98135268     0.8483836      1.0035456      1.0921288      26.218084    
        40   21.027301      158.5          158.5          158.5          0.95358927     0.98001306     0.79641361     1.0843411      21.027301    
        60   17.841111      158.5          158.5          158.5          0.95638824     1.0177354      0.95835034     0.89307898     17.841111    
        80   15.788161      158.5          158.5          158.5          0.94016508     0.95528501     1.0056654      0.85954486     15.788161    
       100   14.525238      158.5          158.5          158.5          0.84014286     0.90796972     0.8143973      0.79806156     14.525238    
       120   13.889848      158.5          158.5          158.5          0.83432358     0.9367815      0.78840192     0.77778732     13.889848    
       140   13.462296      158.5          158.5          158.5          0.90888244     0.92791998     0.88321746     0.91550987     13.462296    
       160   13.10109       158.5          158.5          158.5          0.802755       0.83694657     0.84131126     0.73000716     13.10109     
       180   12.785594      158.5          158.5          158.5          0.76244108     0.78380656     0.80776407     0.6957526      12.785594    
       200   12.482974      158.5          158.5          158.5          0.86613971     0.94580132     0.84595627     0.80666155     12.482974    
       220   12.226126      158.5          158.5          158.5          0.83478825     0.90945345     0.90073366     0.69417762     12.226126    
       240   12.014386      158.5          158.5          158.5          0.83582015     0.87491148     0.85588794     0.77666103     12.014386    
       260   11.8132        158.5          158.5          158.5          0.80103721     0.8684178      0.83415467     0.70053916     11.8132      
       280   11.534753      158.5          158.5          158.5          0.85471371     0.92872388     0.8521804      0.78323684     11.534753    
       300   11.307672      158.5          158.5          158.5          0.88881522     0.94170903     0.90400972     0.8207269      11.307672    
       320   11.240783      158.5          158.5          158.5          0.79405387     0.8506739      0.7945431      0.73694461     11.240783    
       340   11.167381      158.5          158.5          158.5          0.90411819     0.95909278     0.92100209     0.83225971     11.167381    
       360   11.04375       158.5          158.5          158.5          0.86963476     0.95635884     0.84426939     0.80827605     11.04375     
       380   10.888879      158.5          158.5          158.5          0.91181183     0.99741558     0.90752076     0.83049914     10.888879    
       400   10.801222      158.5          158.5          158.5          0.9093757      0.98327103     0.93418717     0.81066889     10.801222    
       420   10.730221      158.5          158.5          158.5          0.92235451     0.97265442     0.93604743     0.85836169     10.730221    
       440   10.674641      158.5          158.5          158.5          0.85419912     0.93207973     0.85595838     0.77455924     10.674641    
       460   10.599711      158.5          158.5          158.5          0.89064548     0.95475238     0.89461626     0.8225678      10.599711    
       480   10.460341      158.5          158.5          158.5          0.8604885      0.89213839     0.909758       0.7795691      10.460341    
       500   10.354586      158.5          158.5          158.5          0.8695253      0.9291068      0.88774487     0.79172423     10.354586    
       520   10.204032      158.5          158.5          158.5          0.90236618     0.97955035     0.92402467     0.80352351     10.204032    
       540   10.082669      158.5          158.5          158.5          0.91363395     0.95417109     0.95842315     0.82830762     10.082669    
       560   9.9418168      158.5          158.5          158.5          0.8661787      0.8796925      0.88555794     0.83328564     9.9418168    
       580   9.8462523      158.5          158.5          158.5          0.9185054      0.99754457     0.93613909     0.82183253     9.8462523    
       600   9.8004851      158.5          158.5          158.5          0.87681208     0.94987857     0.89033804     0.79021962     9.8004851    
       620   9.7909148      158.5          158.5          158.5          0.90932889     0.98241044     0.90626973     0.8393065      9.7909148    
       640   9.7769844      158.5          158.5          158.5          0.918645       0.96888823     0.93880914     0.84823762     9.7769844    
       660   9.7661018      158.5          158.5          158.5          0.91387087     0.98460137     0.92102725     0.835984       9.7661018    
       680   9.7449973      158.5          158.5          158.5          0.89769578     0.97088272     0.89276524     0.82943939     9.7449973    
       700   9.7013053      158.5          158.5          158.5          0.88150716     0.9268353      0.91437365     0.80331255     9.7013053    
       720   9.6477285      158.5          158.5          158.5          0.91570652     0.96995574     0.90632373     0.87084009     9.6477285    
       740   9.6142144      158.5          158.5          158.5          0.88072166     0.93627296     0.90187796     0.80401406     9.6142144    
       760   9.5692511      158.5          158.5          158.5          0.89426681     0.95083047     0.91243724     0.81953272     9.5692511    
       780   9.5108257      158.5          158.5          158.5          0.88880234     0.94789917     0.89281769     0.82569015     9.5108257    
       800   9.475124       158.5          158.5          158.5          0.88910803     0.95719673     0.88071537     0.82941199     9.475124     
       820   9.4501378      158.5          158.5          158.5          0.89502227     0.98412785     0.88502256     0.81591641     9.4501378    
       840   9.4391403      158.5          158.5          158.5          0.89403002     0.95958877     0.89730691     0.82519439     9.4391403    
       860   9.4277185      158.5          158.5          158.5          0.8965865      0.96399939     0.9016068      0.82415333     9.4277185    
       880   9.4227323      158.5          158.5          158.5          0.88661014     0.9582798      0.89843916     0.80311147     9.4227323    
       900   9.415707       158.5          158.5          158.5          0.90433343     0.97160235     0.90771191     0.83368602     9.415707     
       920   9.4138959      158.5          158.5          158.5          0.89675481     0.96568211     0.902787       0.82179532     9.4138959    
       940   9.4113678      158.5          158.5          158.5          0.89999798     0.96770753     0.90777423     0.82451217     9.4113678    
       960   9.4063406      158.5          158.5          158.5          0.90847038     0.97392308     0.90265397     0.8488341      9.4063406    
       980   9.3995228      158.5          158.5          158.5          0.91998989     0.98449897     0.92821127     0.84725942     9.3995228    
      1000   9.3933943      158.5          158.5          158.5          0.92418619     0.98907848     0.9314276      0.8520525      9.3933943    
      1020   9.3841075      158.5          158.5          158.5          0.92608445     0.98453884     0.93197538     0.86173912     9.3841075    
      1040   9.3774035      158.5          158.5          158.5          0.92629138     0.98644469     0.93374201     0.85868743     9.3774035    
      1060   9.3694247      158.5          158.5          158.5          0.94535999     1.0080105      0.94976245     0.87830707     9.3694247    
      1080   9.361113       158.5          158.5          158.5          0.95650585     1.0178511      0.95136104     0.90030539     9.361113     
      1100   9.3492027      158.5          158.5          158.5          0.94511428     0.99782767     0.95772332     0.87979185     9.3492027    
      1120   9.3402858      158.5          158.5          158.5          0.93659961     1.0151021      0.9310031      0.86369366     9.3402858    
      1140   9.3308326      158.5          158.5          158.5          0.96442701     1.0299417      0.96729872     0.89604057     9.3308326    
      1160   9.3216528      158.5          158.5          158.5          0.96518722     1.0274934      0.96610268     0.90196557     9.3216528    
      1180   9.301434       158.5          158.5          158.5          0.92837835     0.99887812     0.92748481     0.85877213     9.301434     
      1200   9.2866895      158.5          158.5          158.5          0.94471496     1.0218834      0.93752783     0.87473359     9.2866895    
      1220   9.2803837      158.5          158.5          158.5          0.93187579     1.006644       0.93080599     0.85817741     9.2803837    
      1240   9.2736214      158.5          158.5          158.5          0.9460638      1.0248944      0.93853425     0.87476271     9.2736214    
      1260   9.2693201      158.5          158.5          158.5          0.95378002     1.0267614      0.94712204     0.88745663     9.2693201    
      1280   9.2660078      158.5          158.5          158.5          0.94669637     1.0160396      0.94380984     0.88023964     9.2660078    
      1300   9.2636363      158.5          158.5          158.5          0.9530482      1.0206387      0.94984445     0.88866143     9.2636363    
      1320   9.2602741      158.5          158.5          158.5          0.94885121     1.0177157      0.94710081     0.88173712     9.2602741    
      1340   9.2583906      158.5          158.5          158.5          0.94768352     1.0137794      0.95356137     0.87570982     9.2583906    
      1360   9.2565132      158.5          158.5          158.5          0.94877457     1.0159092      0.94740798     0.88300649     9.2565132    
      1380   9.2544434      158.5          158.5          158.5          0.94650511     1.0118255      0.94527137     0.88241849     9.2544434    
      1400   9.2499331      158.5          158.5          158.5          0.94363255     1.0112527      0.94209385     0.87755113     9.2499331    
      1420   9.2403723      158.5          158.5          158.5          0.93184718     0.99786841     0.93372754     0.86394558     9.2403723    
      1440   9.2354076      158.5          158.5          158.5          0.93232646     1.0012053      0.93541926     0.86035486     9.2354076    
      1460   9.2327878      158.5          158.5          158.5          0.94236821     1.012391       0.9436862      0.87102742     9.2327878    
      1480   9.2291206      158.5          158.5          158.5          0.93856301     1.0019998      0.94236482     0.87132444     9.2291206    
      1500   9.2223972      158.5          158.5          158.5          0.93454683     1.002259       0.93953732     0.8618442      9.2223972    
      1520   9.2210976      158.5          158.5          158.5          0.93377925     1.0024276      0.93430755     0.86460263     9.2210976    
      1540   9.2191129      158.5          158.5          158.5          0.92919409     0.99826686     0.92702629     0.86228914     9.2191129    
      1560   9.2163469      158.5          158.5          158.5          0.93069024     0.99970975     0.93153118     0.86082981     9.2163469    
      1580   9.2138169      158.5          158.5          158.5          0.92569056     0.99376254     0.92653435     0.85677479     9.2138169    
      1600   9.2092577      158.5          158.5          158.5          0.93343389     1.0006071      0.93644648     0.86324811     9.2092577    
      1620   9.2047554      158.5          158.5          158.5          0.94478138     1.0218472      0.93434127     0.87815569     9.2047554    
      1640   9.200873       158.5          158.5          158.5          0.94246337     1.010962       0.94067033     0.87575782     9.200873     
      1660   9.1988584      158.5          158.5          158.5          0.941013       1.0072801      0.94164096     0.87411789     9.1988584    
      1680   9.1957725      158.5          158.5          158.5          0.94727447     1.0118487      0.94264412     0.88733058     9.1957725    
      1700   9.1882271      158.5          158.5          158.5          0.95482951     1.0163742      0.96117123     0.88694309     9.1882271    
      1720   9.1750166      158.5          158.5          158.5          0.95824877     1.0017037      0.97021078     0.90283177     9.1750166    
      1740   9.1457183      158.5          158.5          158.5          0.9352821      0.9839496      0.93973538     0.88216132     9.1457183    
      1760   9.1197091      158.5          158.5          158.5          0.90694971     0.9501328      0.94609638     0.82461996     9.1197091    
      1780   9.0904533      158.5          158.5          158.5          0.91832149     0.98629887     0.91674403     0.85192156     9.0904533    
      1800   9.0749357      158.5          158.5          158.5          0.93168682     0.99906343     0.92915575     0.86684127     9.0749357    
      1820   9.0643041      158.5          158.5          158.5          0.94297996     1.0125284      0.94438967     0.87202182     9.0643041    
      1840   9.0504119      158.5          158.5          158.5          0.9407541      1.0088523      0.95175356     0.8616565      9.0504119    
      1860   9.0352826      158.5          158.5          158.5          0.93524614     0.99938944     0.94178015     0.86456882     9.0352826    
      1880   9.0226507      158.5          158.5          158.5          0.95605621     1.0162981      0.97256043     0.87931011     9.0226507    
      1900   9.0158993      158.5          158.5          158.5          0.94444453     1.0086953      0.94935995     0.87527834     9.0158993    
      1920   9.0071752      158.5          158.5          158.5          0.95004487     1.0204631      0.94734649     0.88232498     9.0071752    
      1940   8.9999571      158.5          158.5          158.5          0.93527056     1.0038269      0.93741816     0.86456663     8.9999571    
      1960   8.9935308      158.5          158.5          158.5          0.93796465     1.0064491      0.93011313     0.87733167     8.9935308    
      1980   8.9881282      158.5          158.5          158.5          0.94175703     1.0097515      0.9373238      0.87819575     8.9881282    
      2000   8.982978       158.5          158.5          158.5          0.93782388     0.99849543     0.93899624     0.87597997     8.982978     
      2020   8.9781662      158.5          158.5          158.5          0.93607648     0.99987027     0.93992723     0.86843194     8.9781662    
      2040   8.9741163      158.5          158.5          158.5          0.9384833      1.002688       0.93970481     0.87305711     8.9741163    
      2060   8.9699186      158.5          158.5          158.5          0.93902382     1.0135834      0.9417006      0.86178745     8.9699186    
      2080   8.9670735      158.5          158.5          158.5          0.93151548     1.0008551      0.9367583      0.856933       8.9670735    
      2100   8.9658311      158.5          158.5          158.5          0.93677733     1.001671       0.93943533     0.86922564     8.9658311    
      2120   8.965407       158.5          158.5          158.5          0.93301418     1.0004612      0.93667394     0.86190744     8.965407     
      2140   8.9638502      158.5          158.5          158.5          0.93962441     1.0077525      0.94189562     0.86922513     8.9638502    
      2160   8.9621397      158.5          158.5          158.5          0.93890866     1.0045229      0.9392494      0.87295363     8.9621397    
      2180   8.9603107      158.5          158.5          158.5          0.93857668     1.0027362      0.94334416     0.86964968     8.9603107    
      2200   8.9558832      158.5          158.5          158.5          0.93872052     1.0073669      0.93880806     0.86998662     8.9558832    
      2220   8.9532593      158.5          158.5          158.5          0.9381001      1.0082607      0.93509966     0.87093994     8.9532593    
      2240   8.9484504      158.5          158.5          158.5          0.93898958     1.0076274      0.9368769      0.87246438     8.9484504    
      2260   8.9403754      158.5          158.5          158.5          0.9545168      1.0193783      0.95544676     0.88872535     8.9403754    
      2280   8.9272054      158.5          158.5          158.5          0.95993162     1.0215339      0.97161359     0.88664742     8.9272054    
      2300   8.9014715      158.5          158.5          158.5          0.9783922      1.0499991      0.96938305     0.91579446     8.9014715    
      2320   8.8798434      158.5          158.5          158.5          0.95244334     1.0372994      0.94237909     0.87765154     8.8798434    
      2340   8.8635701      158.5          158.5          158.5          0.93776193     1.0140278      0.9423644      0.85689357     8.8635701    
      2360   8.8549928      158.5          158.5          158.5          0.93782117     1.0139011      0.93769043     0.86187197     8.8549928    
      2380   8.8431333      158.5          158.5          158.5          0.95207923     1.0362019      0.94319229     0.87684346     8.8431333    
      2400   8.8322447      158.5          158.5          158.5          0.93700559     1.0074569      0.93298307     0.87057681     8.8322447    
      2420   8.8272617      158.5          158.5          158.5          0.94408454     1.0179456      0.93898397     0.87532409     8.8272617    
      2440   8.8236081      158.5          158.5          158.5          0.94346562     1.0198539      0.94296379     0.8675792      8.8236081    
      2460   8.8207155      158.5          158.5          158.5          0.95517705     1.0321718      0.94697902     0.88638038     8.8207155    
      2480   8.8146463      158.5          158.5          158.5          0.949505       1.0275543      0.94916191     0.87179874     8.8146463    
      2500   8.8099532      158.5          158.5          158.5          0.9541516      1.0310645      0.94610945     0.88528089     8.8099532    
      2520   8.8043678      158.5          158.5          158.5          0.94991233     1.0140029      0.94727245     0.88846168     8.8043678    
      2540   8.7981829      158.5          158.5          158.5          0.96034515     1.0324247      0.95778177     0.89082898     8.7981829    
      2560   8.7918908      158.5          158.5          158.5          0.96707339     1.0302338      0.95611959     0.91486673     8.7918908    
      2580   8.7865499      158.5          158.5          158.5          0.94971097     1.0195763      0.94685562     0.88270099     8.7865499    
      2600   8.7822874      158.5          158.5          158.5          0.94507845     1.0064328      0.94704995     0.88175259     8.7822874    
      2620   8.7791139      158.5          158.5          158.5          0.95457582     1.023161       0.95318642     0.88738002     8.7791139    
      2640   8.7755026      158.5          158.5          158.5          0.95218386     1.0278316      0.95251493     0.87620506     8.7755026    
      2660   8.7698612      158.5          158.5          158.5          0.95305737     1.0157525      0.95184684     0.89157275     8.7698612    
      2680   8.7644291      158.5          158.5          158.5          0.94911957     1.0169182      0.95116184     0.87927866     8.7644291    
      2700   8.7614364      158.5          158.5          158.5          0.94271133     1.0138311      0.94372243     0.87058052     8.7614364    
      2720   8.7608721      158.5          158.5          158.5          0.94421483     1.0112703      0.94829134     0.87308285     8.7608721    
      2740   8.7597966      158.5          158.5          158.5          0.94424227     1.0081873      0.94487081     0.87966867     8.7597966    
      2760   8.7583916      158.5          158.5          158.5          0.94172275     1.0087711      0.9428485      0.87354863     8.7583916    
      2780   8.7566153      158.5          158.5          158.5          0.94005459     1.0087329      0.94222036     0.8692105      8.7566153    
      2800   8.7545349      158.5          158.5          158.5          0.9406006      1.0103948      0.940034       0.871373       8.7545349    
      2820   8.7510642      158.5          158.5          158.5          0.94859154     1.0217084      0.9458639      0.87820232     8.7510642    
      2840   8.7468444      158.5          158.5          158.5          0.95886563     1.0294947      0.95025937     0.89684288     8.7468444    
      2860   8.7418126      158.5          158.5          158.5          0.95332987     1.0287463      0.94507752     0.88616577     8.7418126    
      2880   8.7389212      158.5          158.5          158.5          0.95261373     1.0212427      0.95032301     0.88627551     8.7389212    
      2900   8.7355844      158.5          158.5          158.5          0.93828607     1.0050715      0.93907024     0.87071648     8.7355844    
      2920   8.7306118      158.5          158.5          158.5          0.9330768      1.0089742      0.93455915     0.8556971      8.7306118    
      2940   8.7263882      158.5          158.5          158.5          0.92459776     0.98595263     0.929295       0.85854566     8.7263882    
      2960   8.7214982      158.5          158.5          158.5          0.93061898     0.99994808     0.93087811     0.86103074     8.7214982    
      2980   8.7168776      158.5          158.5          158.5          0.91669141     0.98528775     0.92458727     0.84019921     8.7168776    
      3000   8.7095175      158.5          158.5          158.5          0.92547428     0.99450255     0.93501695     0.84690335     8.7095175    
      3020   8.7071966      158.5          158.5          158.5          0.92661637     1.006575       0.92735329     0.84592078     8.7071966    
      3040   8.7053585      158.5          158.5          158.5          0.92778998     0.99715285     0.93220672     0.85401037     8.7053585    
      3060   8.7035485      158.5          158.5          158.5          0.92843938     0.98957191     0.93358351     0.86216271     8.7035485    
      3080   8.702057       158.5          158.5          158.5          0.92962206     0.9984152      0.93230208     0.85814891     8.702057     
      3100   8.6999622      158.5          158.5          158.5          0.93312548     0.998796       0.93381877     0.86676168     8.6999622    
      3120   8.6985344      158.5          158.5          158.5          0.93982798     1.0031745      0.93925469     0.8770547      8.6985344    
      3140   8.6971376      158.5          158.5          158.5          0.94005375     1.0066589      0.94045424     0.87304814     8.6971376    
      3160   8.6958141      158.5          158.5          158.5          0.94373044     1.0110375      0.9446918      0.87546197     8.6958141    
      3180   8.692959       158.5          158.5          158.5          0.94078315     1.0085828      0.94220458     0.87156205     8.692959     
      3200   8.689374       158.5          158.5          158.5          0.93001068     1.0018692      0.93079498     0.85736788     8.689374     
      3220   8.686846       158.5          158.5          158.5          0.93065237     0.99473886     0.93655332     0.86066492     8.686846     
      3240   8.6849375      158.5          158.5          158.5          0.93772492     1.0034042      0.94082381     0.8689467      8.6849375    
      3260   8.6838324      158.5          158.5          158.5          0.94201325     1.005783       0.94662515     0.87363164     8.6838324    
      3280   8.6821858      158.5          158.5          158.5          0.93570617     1.0006707      0.94125806     0.86518975     8.6821858    
      3300   8.679026       158.5          158.5          158.5          0.94657279     1.014762       0.95156382     0.87339257     8.679026     
      3320   8.6772304      158.5          158.5          158.5          0.92842302     0.99164748     0.93347353     0.86014805     8.6772304    
      3340   8.6763235      158.5          158.5          158.5          0.93915882     1.0031748      0.94413327     0.87016841     8.6763235    
      3360   8.6755691      158.5          158.5          158.5          0.93488562     0.99971506     0.94118535     0.86375645     8.6755691    
      3380   8.6744302      158.5          158.5          158.5          0.93353109     0.99414612     0.94016051     0.86628664     8.6744302    
      3400   8.6728666      158.5          158.5          158.5          0.93576622     1.006683       0.93474724     0.86586846     8.6728666    
      3420   8.6705007      158.5          158.5          158.5          0.93553174     0.99854141     0.93664509     0.87140871     8.6705007    
      3440   8.6682554      158.5          158.5          158.5          0.95036019     1.0216491      0.94300223     0.88642925     8.6682554    
      3460   8.6669483      158.5          158.5          158.5          0.9416367      1.0103339      0.93854129     0.87603488     8.6669483    
      3480   8.6651974      158.5          158.5          158.5          0.94405289     1.0079941      0.94324074     0.88092386     8.6651974    
      3500   8.6638996      158.5          158.5          158.5          0.9377437      1.0048668      0.9393674      0.86899687     8.6638996    
      3520   8.6621833      158.5          158.5          158.5          0.93970734     1.0068534      0.94138176     0.87088684     8.6621833    
      3540   8.6606677      158.5          158.5          158.5          0.93600199     1.0068613      0.93753467     0.86360999     8.6606677    
      3560   8.658668       158.5          158.5          158.5          0.93385225     0.99902067     0.939178       0.86335809     8.658668     
      3580   8.6567001      158.5          158.5          158.5          0.93198473     1.0062716      0.93408512     0.85559751     8.6567001    
      3600   8.6545209      158.5          158.5          158.5          0.93550487     1.0083713      0.94096538     0.85717794     8.6545209    
      3620   8.6534995      158.5          158.5          158.5          0.93342739     1.003008       0.93837893     0.8588952      8.6534995    
      3640   8.6518749      158.5          158.5          158.5          0.93965761     1.0058583      0.94514826     0.86796626     8.6518749    
      3660   8.6505935      158.5          158.5          158.5          0.93673703     1.0031672      0.94007698     0.86696689     8.6505935    
      3680   8.6496752      158.5          158.5          158.5          0.93172806     0.99949954     0.9377259      0.85795873     8.6496752    
      3700   8.6485882      158.5          158.5          158.5          0.93737366     1.0045761      0.93948924     0.86805565     8.6485882    
      3720   8.6470933      158.5          158.5          158.5          0.94118763     1.0113291      0.94103633     0.87119747     8.6470933    
      3740   8.645509       158.5          158.5          158.5          0.9452033      1.0105641      0.94377173     0.88127407     8.645509     
      3760   8.6430587      158.5          158.5          158.5          0.94532779     1.0107848      0.94191237     0.88328622     8.6430587    
      3780   8.6408882      158.5          158.5          158.5          0.94603484     1.0074546      0.9474119      0.88323804     8.6408882    
      3800   8.6394164      158.5          158.5          158.5          0.94280117     1.0057917      0.9425012      0.88011067     8.6394164    
      3820   8.6372684      158.5          158.5          158.5          0.93770878     0.99580867     0.94189812     0.87541957     8.6372684    
      3840   8.6346693      158.5          158.5          158.5          0.93321476     0.99958267     0.9370635      0.86299813     8.6346693    
      3860   8.6326955      158.5          158.5          158.5          0.93520881     1.0019827      0.94116525     0.86247848     8.6326955    
      3880   8.6304084      158.5          158.5          158.5          0.9345         0.99693156     0.93839828     0.86817016     8.6304084    
      3900   8.6280067      158.5          158.5          158.5          0.93098578     0.99592307     0.93415222     0.86288205     8.6280067    
      3920   8.6273212      158.5          158.5          158.5          0.93625915     0.99973809     0.9433156      0.86572378     8.6273212    
      3940   8.6253053      158.5          158.5          158.5          0.93540302     0.99937176     0.9397486      0.8670887      8.6253053    
      3960   8.6230168      158.5          158.5          158.5          0.94042038     1.0054912      0.94180547     0.87396445     8.6230168    
      3980   8.621763       158.5          158.5          158.5          0.94284247     1.0067978      0.9437861      0.87794351     8.621763     
      4000   8.620362       158.5          158.5          158.5          0.94220927     1.0053917      0.94362421     0.87761195     8.620362     
      4020   8.6191967      158.5          158.5          158.5          0.94235597     1.005783       0.94155064     0.87973427     8.6191967    
      4040   8.6179369      158.5          158.5          158.5          0.94167218     1.0074122      0.94428751     0.87331686     8.6179369    
      4060   8.6163356      158.5          158.5          158.5          0.94440891     1.0092672      0.94385981     0.8800997      8.6163356    
      4080   8.6139515      158.5          158.5          158.5          0.94312773     1.0116546      0.94157374     0.87615482     8.6139515    
      4100   8.6127556      158.5          158.5          158.5          0.93958727     1.0061615      0.94116164     0.87143869     8.6127556    
      4120   8.6118444      158.5          158.5          158.5          0.93878836     1.0039275      0.94140113     0.87103643     8.6118444    
      4140   8.610963       158.5          158.5          158.5          0.93577172     1.0067095      0.94126907     0.85933662     8.610963     
      4160   8.6093805      158.5          158.5          158.5          0.92956473     0.99609341     0.93549464     0.85710614     8.6093805    
      4180   8.6045784      158.5          158.5          158.5          0.93609892     1.0036809      0.94978976     0.85482611     8.6045784    
      4200   8.5885374      158.5          158.5          158.5          0.89339005     0.96610725     0.91082276     0.80324015     8.5885374    
      4220   8.5821015      158.5          158.5          158.5          0.92680205     0.99792784     0.94561431     0.83686399     8.5821015    
      4240   8.5790755      158.5          158.5          158.5          0.92705067     0.99663876     0.93399374     0.8505195      8.5790755    
      4260   8.5773052      158.5          158.5          158.5          0.93462184     1.0080194      0.94136151     0.85448459     8.5773052    
      4280   8.5755709      158.5          158.5          158.5          0.94414992     1.0094888      0.944233       0.87872792     8.5755709    
      4300   8.5743186      158.5          158.5          158.5          0.94054059     1.0078083      0.94013338     0.8736801      8.5743186    
      4320   8.5734188      158.5          158.5          158.5          0.94528683     1.0163981      0.94668439     0.87277804     8.5734188    
      4340   8.5721187      158.5          158.5          158.5          0.94487578     1.0115318      0.94034164     0.88275393     8.5721187    
      4360   8.5712527      158.5          158.5          158.5          0.93946306     1.0044714      0.94166486     0.87225296     8.5712527    
      4380   8.5703548      158.5          158.5          158.5          0.93822434     1.0035008      0.94016895     0.87100324     8.5703548    
      4400   8.5696223      158.5          158.5          158.5          0.93787893     1.0034391      0.94038283     0.86981491     8.5696223    
      4420   8.5689085      158.5          158.5          158.5          0.94075726     1.0076655      0.94216827     0.87243795     8.5689085    
      4440   8.5682095      158.5          158.5          158.5          0.93903687     1.0068816      0.94062187     0.86960714     8.5682095    
      4460   8.5677124      158.5          158.5          158.5          0.94025847     1.0068486      0.94409396     0.86983285     8.5677124    
      4480   8.5661086      158.5          158.5          158.5          0.93436295     0.99877846     0.9372742      0.8670362      8.5661086    
      4500   8.5640671      158.5          158.5          158.5          0.93040901     0.99933237     0.938989       0.85290567     8.5640671    
      4520   8.5631729      158.5          158.5          158.5          0.93183774     0.99618705     0.94125231     0.85807387     8.5631729    
      4540   8.5626726      158.5          158.5          158.5          0.93325081     1.0001314      0.9402411      0.85937997     8.5626726    
      4560   8.5619709      158.5          158.5          158.5          0.9349032      1.0035011      0.93906433     0.86214421     8.5619709    
      4580   8.5615358      158.5          158.5          158.5          0.93994594     1.0042871      0.94354171     0.87200897     8.5615358    
      4600   8.5604822      158.5          158.5          158.5          0.93986782     1.0089064      0.94017491     0.87052218     8.5604822    
      4620   8.5598219      158.5          158.5          158.5          0.93880634     1.0045522      0.94110896     0.87075788     8.5598219    
      4640   8.5590504      158.5          158.5          158.5          0.94304671     1.0062419      0.94757366     0.87532461     8.5590504    
      4660   8.5576806      158.5          158.5          158.5          0.94493373     1.0112678      0.94144633     0.88208709     8.5576806    
      4680   8.5545318      158.5          158.5          158.5          0.94675375     1.0187504      0.93784793     0.88366292     8.5545318    
      4700   8.5481214      158.5          158.5          158.5          0.95109295     1.0104581      0.94201306     0.90080765     8.5481214    
      4720   8.5341826      158.5          158.5          158.5          0.96297957     1.0370423      0.95635929     0.8955371      8.5341826    
      4740   8.4923682      158.5          158.5          158.5          0.89019048     0.99469495     0.85580811     0.82006837     8.4923682    
      4760   8.4590904      158.5          158.5          158.5          0.89678977     0.98982073     0.90567557     0.794873       8.4590904    
      4780   8.4402384      158.5          158.5          158.5          0.88044806     0.98460688     0.89572974     0.76100757     8.4402384    
      4800   8.4234148      158.5          158.5          158.5          0.88720192     0.98410874     0.91329886     0.76419817     8.4234148    
      4820   8.410494       158.5          158.5          158.5          0.89459992     0.99054455     0.93339253     0.75986269     8.410494     
      4840   8.3941935      158.5          158.5          158.5          0.89770024     0.98977161     0.91416944     0.78915968     8.3941935    
      4860   8.3792278      158.5          158.5          158.5          0.93143956     1.0154306      0.94179088     0.83709718     8.3792278    
      4880   8.367425       158.5          158.5          158.5          0.92774102     1.0100437      0.93628614     0.83689325     8.367425     
      4900   8.3547444      158.5          158.5          158.5          0.92499676     1.0120468      0.93793079     0.8250127      8.3547444    
      4920   8.3422343      158.5          158.5          158.5          0.93629576     1.0097581      0.93854761     0.86058156     8.3422343    
      4940   8.3364365      158.5          158.5          158.5          0.93387439     1.00297        0.93520909     0.86344405     8.3364365    
      4960   8.333355       158.5          158.5          158.5          0.93804464     1.0062008      0.94188302     0.86605005     8.333355     
      4980   8.3307088      158.5          158.5          158.5          0.93777082     1.0036516      0.93680904     0.87285186     8.3307088    
      5000   8.3273645      158.5          158.5          158.5          0.93758028     1.0041778      0.94232356     0.86623949     8.3273645    
      5020   8.3249158      158.5          158.5          158.5          0.93060717     0.99714641     0.93486687     0.85980823     8.3249158    
      5040   8.3233239      158.5          158.5          158.5          0.93439487     1.0010307      0.93650844     0.86564542     8.3233239    
      5060   8.3224635      158.5          158.5          158.5          0.93110116     0.99651437     0.93555049     0.86123863     8.3224635    
      5080   8.3216907      158.5          158.5          158.5          0.92993718     0.99650295     0.93781388     0.85549472     8.3216907    
      5100   8.3209363      158.5          158.5          158.5          0.93058239     0.99448613     0.93881889     0.85844215     8.3209363    
      5120   8.3207453      158.5          158.5          158.5          0.93198483     0.99990292     0.93592465     0.86012693     8.3207453    
      5140   8.3204026      158.5          158.5          158.5          0.93083622     1.0009313      0.9304368      0.86114051     8.3204026    
      5160   8.3196045      158.5          158.5          158.5          0.93348897     0.99865524     0.93386905     0.86794263     8.3196045    
      5180   8.3185051      158.5          158.5          158.5          0.933156       0.99274491     0.93481679     0.8719063      8.3185051    
      5200   8.3170646      158.5          158.5          158.5          0.93697782     1.002772       0.93958194     0.86857947     8.3170646    
      5220   8.3160467      158.5          158.5          158.5          0.93105366     0.99630458     0.93929376     0.85756264     8.3160467    
      5240   8.3146184      158.5          158.5          158.5          0.92560997     0.99253823     0.92635804     0.85793363     8.3146184    
      5260   8.3136357      158.5          158.5          158.5          0.93446372     1.001095       0.93119048     0.87110575     8.3136357    
      5280   8.3115943      158.5          158.5          158.5          0.9323902      0.99503536     0.93542269     0.86671254     8.3115943    
      5300   8.3101052      158.5          158.5          158.5          0.93748223     1.0053877      0.93949902     0.86755996     8.3101052    
      5320   8.3089838      158.5          158.5          158.5          0.94054394     1.0037024      0.93828278     0.87964663     8.3089838    
      5340   8.3065243      158.5          158.5          158.5          0.93644181     1.0038339      0.92677958     0.87871195     8.3065243    
      5360   8.3023881      158.5          158.5          158.5          0.93359462     0.9976663      0.92517986     0.87793771     8.3023881    
      5380   8.2987173      158.5          158.5          158.5          0.92972747     0.99218386     0.9365119      0.86048665     8.2987173    
      5400   8.2930512      158.5          158.5          158.5          0.95047989     1.021915       0.94967249     0.87985223     8.2930512    
      5420   8.2891458      158.5          158.5          158.5          0.93299955     0.99499326     0.94166838     0.86233699     8.2891458    
      5440   8.2869777      158.5          158.5          158.5          0.94776651     1.0080788      0.95270127     0.88251942     8.2869777    
      5460   8.2847353      158.5          158.5          158.5          0.94868419     1.0114804      0.94795218     0.88662005     8.2847353    
      5480   8.283091       158.5          158.5          158.5          0.95716492     1.0233444      0.95638418     0.89176622     8.283091     
      5500   8.2818807      158.5          158.5          158.5          0.95100206     1.0092151      0.95774731     0.88604379     8.2818807    
      5520   8.2805066      158.5          158.5          158.5          0.95397679     1.0168491      0.95754036     0.88754091     8.2805066    
      5540   8.2794122      158.5          158.5          158.5          0.94704127     1.0137364      0.94795801     0.87942946     8.2794122    
      5560   8.2785329      158.5          158.5          158.5          0.94526512     1.0113553      0.94499399     0.87944606     8.2785329    
      5580   8.2777021      158.5          158.5          158.5          0.94315312     1.0115853      0.94286566     0.87500841     8.2777021    
      5600   8.2767966      158.5          158.5          158.5          0.94048347     1.0093582      0.94143545     0.87065678     8.2767966    
      5620   8.2757484      158.5          158.5          158.5          0.94402605     1.0125152      0.94726446     0.87229845     8.2757484    
      5640   8.2744994      158.5          158.5          158.5          0.93824017     1.0089978      0.93850765     0.86721507     8.2744994    
      5660   8.2732606      158.5          158.5          158.5          0.94166594     1.0125629      0.94105331     0.87138161     8.2732606    
      5680   8.2725848      158.5          158.5          158.5          0.94009152     1.009945       0.94142148     0.86890805     8.2725848    
      5700   8.2720316      158.5          158.5          158.5          0.94256643     1.0116402      0.94667749     0.86938163     8.2720316    
      5720   8.2718382      158.5          158.5          158.5          0.93927039     1.0079688      0.94175618     0.86808623     8.2718382    
      5740   8.2711805      158.5          158.5          158.5          0.94074005     1.0122649      0.9407658      0.86918944     8.2711805    
      5760   8.2703592      158.5          158.5          158.5          0.93633791     1.0007469      0.93926015     0.86900669     8.2703592    
      5780   8.2697216      158.5          158.5          158.5          0.93725504     1.0038186      0.94359961     0.86434689     8.2697216    
      5800   8.2691982      158.5          158.5          158.5          0.94105705     1.0066758      0.94724637     0.86924893     8.2691982    
      5820   8.2683885      158.5          158.5          158.5          0.94063233     1.004941       0.9460444      0.87091157     8.2683885    
      5840   8.2675627      158.5          158.5          158.5          0.93791285     1.0035788      0.93744646     0.87271332     8.2675627    
      5860   8.2670224      158.5          158.5          158.5          0.94381949     1.0079577      0.94431962     0.87918112     8.2670224    
      5880   8.2662785      158.5          158.5          158.5          0.94697632     1.0099195      0.95174566     0.87926382     8.2662785    
      5900   8.2651206      158.5          158.5          158.5          0.9457919      1.0077421      0.94815864     0.881475       8.2651206    
      5920   8.263733       158.5          158.5          158.5          0.95071524     1.0113072      0.95617392     0.88466463     8.263733     
      5940   8.2614455      158.5          158.5          158.5          0.93459334     0.99988766     0.93229964     0.87159271     8.2614455    
      5960   8.2589808      158.5          158.5          158.5          0.9315975      1.0046087      0.92484148     0.86534229     8.2589808    
      5980   8.2569138      158.5          158.5          158.5          0.92416679     0.99504383     0.91672604     0.86073049     8.2569138    
      6000   8.2541032      158.5          158.5          158.5          0.9258355      0.98869074     0.93354554     0.85527021     8.2541032    
      6020   8.2524151      158.5          158.5          158.5          0.92887899     0.99846789     0.92346859     0.86470049     8.2524151    
      6040   8.2504778      158.5          158.5          158.5          0.93189144     0.99648298     0.92756224     0.87162909     8.2504778    
      6060   8.2484254      158.5          158.5          158.5          0.93081612     0.99455765     0.92824976     0.86964096     8.2484254    
      6080   8.2465547      158.5          158.5          158.5          0.93296587     0.99919609     0.93254447     0.86715704     8.2465547    
      6100   8.2447383      158.5          158.5          158.5          0.94493356     1.0115925      0.94402802     0.87918017     8.2447383    
      6120   8.2434797      158.5          158.5          158.5          0.93733948     1.0002375      0.93949977     0.87228121     8.2434797    
      6140   8.2421696      158.5          158.5          158.5          0.93327429     0.99924615     0.93083423     0.86974247     8.2421696    
      6160   8.2409189      158.5          158.5          158.5          0.92707449     0.99157051     0.92523267     0.86442029     8.2409189    
      6180   8.2395001      158.5          158.5          158.5          0.9361329      0.99928023     0.94111871     0.86799975     8.2395001    
      6200   8.2390674      158.5          158.5          158.5          0.93928103     1.0016583      0.94555927     0.87062549     8.2390674    
      6220   8.2387356      158.5          158.5          158.5          0.9361931      1.0008453      0.93804779     0.86968626     8.2387356    
      6240   8.2382542      158.5          158.5          158.5          0.93555886     0.99991454     0.93852978     0.86823227     8.2382542    
      6260   8.2375039      158.5          158.5          158.5          0.93575707     1.0013565      0.93725225     0.86866248     8.2375039    
      6280   8.2371977      158.5          158.5          158.5          0.93522197     1.0013154      0.93921667     0.86513386     8.2371977    
      6300   8.236923       158.5          158.5          158.5          0.9381294      1.0037338      0.94419971     0.86645472     8.236923     
      6320   8.2368198      158.5          158.5          158.5          0.93800868     1.0038672      0.94114878     0.86901008     8.2368198    
      6340   8.2366397      158.5          158.5          158.5          0.93582601     1.0028869      0.93624125     0.86834985     8.2366397    
      6360   8.23599        158.5          158.5          158.5          0.93713866     1.0071675      0.92959977     0.87464868     8.23599      
      6380   8.2349481      158.5          158.5          158.5          0.92974582     0.99950626     0.92783105     0.86190016     8.2349481    
      6400   8.2340417      158.5          158.5          158.5          0.93416619     0.99875619     0.93495585     0.86878652     8.2340417    
      6420   8.2331714      158.5          158.5          158.5          0.94274475     1.0061296      0.94876797     0.87333668     8.2331714    
      6440   8.2317343      158.5          158.5          158.5          0.93259827     0.99713403     0.93694819     0.86371258     8.2317343    
      6460   8.2303287      158.5          158.5          158.5          0.92964273     1.0008448      0.92807642     0.860007       8.2303287    
      6480   8.2292193      158.5          158.5          158.5          0.93180664     0.99781214     0.9291475      0.86846029     8.2292193    
      6500   8.2270872      158.5          158.5          158.5          0.9437392      1.0065302      0.9416218      0.88306562     8.2270872    
      6520   8.2245722      158.5          158.5          158.5          0.95230839     1.0221404      0.96067464     0.87411012     8.2245722    
      6540   8.2212419      158.5          158.5          158.5          0.95273737     1.0169554      0.95561442     0.88564226     8.2212419    
      6560   8.2178152      158.5          158.5          158.5          0.94979438     1.0086058      0.94626666     0.89451069     8.2178152    
      6580   8.2146703      158.5          158.5          158.5          0.94628034     1.0100823      0.93424553     0.89451321     8.2146703    
      6600   8.2093989      158.5          158.5          158.5          0.92907904     0.98920177     0.93218011     0.86585524     8.2093989    
      6620   8.2068367      158.5          158.5          158.5          0.95093823     1.0142384      0.94847177     0.8901045      8.2068367    
      6640   8.2050971      158.5          158.5          158.5          0.94530691     1.0101655      0.94523174     0.88052345     8.2050971    
      6660   8.2028262      158.5          158.5          158.5          0.9507969      1.0105999      0.95085768     0.89093306     8.2028262    
      6680   8.2011833      158.5          158.5          158.5          0.94486513     1.0038802      0.95402467     0.87669056     8.2011833    
      6700   8.1994074      158.5          158.5          158.5          0.9485857      1.0127026      0.95114039     0.88191416     8.1994074    
      6720   8.1977817      158.5          158.5          158.5          0.94605816     1.0121763      0.95287042     0.87312772     8.1977817    
      6740   8.1966782      158.5          158.5          158.5          0.943653       1.0102437      0.94318821     0.87752712     8.1966782    
      6760   8.1958611      158.5          158.5          158.5          0.94192069     1.0070299      0.94792259     0.87080955     8.1958611    
      6780   8.1947583      158.5          158.5          158.5          0.94279696     1.0130168      0.94072944     0.87464465     8.1947583    
      6784   8.1946245      158.5          158.5          158.5          0.94403708     1.0127842      0.94265983     0.87666722     8.1946245    
Loop time of 0.642702 on 1 procs for 6784 steps with 100 atoms

79.3% CPU use with 1 MPI tasks x no OpenMP threads

Minimization stats:
  Stopping criterion = linesearch alpha is zero
  Energy initial, next-to-last, final = 
      101.544300410141   8.19462446794383   8.19462446794383
  Force two-norm initial, final = 301.64715 0.27820976
  Force max component initial, final = 58.048787 0.068857128
  Final line search alpha, max atom move = 1.0904498e-07 7.5085238e-09
  Iterations, force evaluations = 6784 13612

MPI task timing breakdown:
Section |  min time  |  avg time  |  max time  |%varavg| %total
---------------------------------------------------------------
Pair    | 0.29987    | 0.29987    | 0.29987    |   0.0 | 46.66
Bond    | 0.25656    | 0.25656    | 0.25656    |   0.0 | 39.92
Neigh   | 0.0087774  | 0.0087774  | 0.0087774  |   0.0 |  1.37
Comm    | 0.0023598  | 0.0023598  | 0.0023598  |   0.0 |  0.37
Output  | 0.039629   | 0.039629   | 0.039629   |   0.0 |  6.17
Modify  | 0          | 0          | 0          |   0.0 |  0.00
Other   |            | 0.0355     |            |       |  5.52

Nlocal:            100 ave         100 max         100 min
Histogram: 1 0 0 0 0 0 0 0 0 0
Nghost:              0 ave           0 max           0 min
Histogram: 1 0 0 0 0 0 0 0 0 0
Neighs:            644 ave         644 max         644 min
Histogram: 1 0 0 0 0 0 0 0 0 0
FullNghs:            0 ave           0 max           0 min
Histogram: 1 0 0 0 0 0 0 0 0 0

Total # of neighbors = 644
Ave neighs/atom = 6.44
Ave special neighs/atom = 5.88
Neighbor list builds = 117
Dangerous builds = 0

run 100000
Generated 0 of 3 mixed pair_coeff terms from geometric mixing rule
Per MPI rank memory allocation (min/avg/max) = 9.279 | 9.279 | 9.279 Mbytes
   Step         PotEng           Lx             Ly             Lz           Press           Pxx            Pyy            Pzz          c_eatoms   
      6784   8.1946245      158.5          158.5          158.5          0.94403708     1.0127842      0.94265983     0.87666722     8.1946245    
      6800   33.714459      158.5          158.5          158.5         -0.24850767     0.59062662    -2.0207982      0.68464853     33.714459    
      6820   59.019637      158.5          158.5          158.5          0.0087216217  -0.55058917     1.551004      -0.97425001     59.019637    
      6840   52.383146      158.5          158.5          158.5         -1.5411124     -2.2602598     -1.6278017     -0.73527562     52.383146    
      6860   48.750838      158.5          158.5          158.5         -1.3086591     -1.0744245     -4.020227       1.1686741      48.750838    
      6880   47.560304      158.5          158.5          158.5          0.78567472     1.8949668      0.50854209    -0.046484748    47.560304    
      6900   58.142292      158.5          158.5          158.5         -0.029009162    0.5034727      0.58512153    -1.1756217      58.142292    
      6920   55.627788      158.5          158.5          158.5         -0.30533018    -1.079582      -0.098216211    0.26180768     55.627788    
      6940   56.111439      158.5          158.5          158.5          0.98507728     0.5814831      0.67414075     1.699608       56.111439    
      6960   63.509854      158.5          158.5          158.5         -1.1503263     -0.06035898    -2.9555678     -0.43505209     63.509854    
      6980   66.158137      158.5          158.5          158.5         -1.1701999     -1.2621176     -1.313846      -0.93463623     66.158137    
      7000   66.194398      158.5          158.5          158.5          3.466959       2.6002163      4.9731393      2.8275213      66.194398    
      7020   73.118356      158.5          158.5          158.5          0.074660649    0.48533495    -0.63381393     0.37246093     73.118356    
      7040   76.015838      158.5          158.5          158.5         -1.3406513     -0.7937971     -1.5120733     -1.7160835      76.015838    
      7060   81.483718      158.5          158.5          158.5          1.2706081      1.7814691      3.6189324     -1.5885771      81.483718    
      7080   91.129116      158.5          158.5          158.5         -0.87706089    -3.2409916      0.93737126    -0.32756239     91.129116    
      7100   77.216168      158.5          158.5          158.5         -2.6280208     -3.4715627     -2.0146817     -2.3978181      77.216168    
      7120   90.785421      158.5          158.5          158.5         -0.12516813     1.9809778      0.67719118    -3.0336734      90.785421    
      7140   94.09625       158.5          158.5          158.5          1.3262857      0.72783495     2.4005341      0.85048799     94.09625     
      7160   108.86118      158.5          158.5          158.5         -2.6580955     -2.5726439     -3.8538107     -1.5478319      108.86118    
      7180   95.019766      158.5          158.5          158.5          1.2221085      3.2470465     -0.64158408     1.060863       95.019766    
      7200   97.350314      158.5          158.5          158.5         -0.6005161     -0.28344814    -1.8419034      0.32380322     97.350314    
      7220   116.1553       158.5          158.5          158.5         -2.0772826     -3.966156      -2.1799887     -0.085703228    116.1553     
      7240   118.5678       158.5          158.5          158.5          1.6663954     -0.2569091      2.3962277      2.8598675      118.5678     
      7260   106.07393      158.5          158.5          158.5         -0.65133776     1.6671225     -1.9559642     -1.6651715      106.07393    
      7280   122.67058      158.5          158.5          158.5         -0.7772181      2.0059523     -4.724379       0.38677245     122.67058    
      7300   134.27951      158.5          158.5          158.5          3.3678189      5.7333179      1.7301674      2.6399713      134.27951    
      7320   133.70375      158.5          158.5          158.5          1.9999682      2.1805663      5.0575658     -1.2382276      133.70375    
      7340   128.23267      158.5          158.5          158.5          1.2769811      2.5387202      0.66523127     0.62699187     128.23267    
      7360   136.70355      158.5          158.5          158.5          1.5086922      4.2654766     -1.3093495      1.5699496      136.70355    
      7380   116.18144      158.5          158.5          158.5         -0.7884205     -0.64132567     3.4112127     -5.1351485      116.18144    
      7400   146.60978      158.5          158.5          158.5         -1.3974007     -3.3286429      2.036153      -2.8997121      146.60978    
      7420   123.11748      158.5          158.5          158.5         -0.12994232    -1.5400015     -2.5703172      3.7204918      123.11748    
      7440   137.11509      158.5          158.5          158.5         -1.6565703     -2.8751586     -4.3399101      2.2453577      137.11509    
      7460   125.80177      158.5          158.5          158.5         -1.1730616     -0.4002814     -2.7423606     -0.37654285     125.80177    
      7480   124.69488      158.5          158.5          158.5         -0.64778828    -2.2462753      1.8859424     -1.5830319      124.69488    
      7500   132.64539      158.5          158.5          158.5         -1.4599941     -5.4733292      2.5017614     -1.4084144      132.64539    
      7520   142.51305      158.5          158.5          158.5         -3.6689147     -4.9353465     -6.0603702     -0.011027524    142.51305    
      7540   116.45784      158.5          158.5          158.5          1.0188779      1.203455       3.0506523     -1.1974737      116.45784    
      7560   137.74809      158.5          158.5          158.5         -1.1796711     -0.70175313     2.8790693     -5.7163296      137.74809    
      7580   124.6923       158.5          158.5          158.5         -2.0943988     -4.4567329     -3.6504821      1.8240187      124.6923     
      7600   113.0552       158.5          158.5          158.5          2.1253968      2.9777414     -0.2659356      3.6643847      113.0552     
      7620   131.25326      158.5          158.5          158.5         -2.7597303     -0.91246196    -2.3606145     -5.0061143      131.25326    
      7640   119.66217      158.5          158.5          158.5          0.88413107    -0.84967637     0.080544597    3.421525       119.66217    
      7660   122.42048      158.5          158.5          158.5         -1.9498319     -0.30717467    -4.2994084     -1.2429126      122.42048    
      7680   126.99693      158.5          158.5          158.5         -4.2197764     -3.0887863     -5.1219058     -4.4486371      126.99693    
      7700   127.70149      158.5          158.5          158.5          0.60964808    -1.0673901     -0.54100394     3.4373383      127.70149    
      7720   126.14621      158.5          158.5          158.5         -5.7839234     -3.3725699     -9.0365815     -4.9426188      126.14621    
      7740   127.26372      158.5          158.5          158.5          0.29720427     5.2235768     -1.8465571     -2.4854069      127.26372    
      7760   124.75816      158.5          158.5          158.5         -1.7721387      0.3778543     -3.5480744     -2.1461959      124.75816    
      7780   121.00413      158.5          158.5          158.5         -1.9744239     -1.1958416     -1.8384039     -2.8890263      121.00413    
      7800   138.65632      158.5          158.5          158.5          3.7824943      6.6616332      0.44892664     4.2369231      138.65632    
      7820   126.66467      158.5          158.5          158.5          0.059784602    1.4227841     -4.8972873      3.653857       126.66467    
      7840   138.70943      158.5          158.5          158.5          0.89585217     0.3254214      1.9193461      0.44278903     138.70943    
      7860   121.3662       158.5          158.5          158.5          3.17393        2.1784274      3.7198882      3.6234743      121.3662     
      7880   130.33863      158.5          158.5          158.5          1.1816758      0.74595852    -1.8897934      4.6888624      130.33863    
      7900   144.97573      158.5          158.5          158.5         -1.5984015     -2.7382639     -0.95176694    -1.1051736      144.97573    
      7920   133.79157      158.5          158.5          158.5          2.292567       0.38273626     3.7526226      2.742342       133.79157    
      7940   127.74911      158.5          158.5          158.5         -1.3441038     -0.61454145    -2.3008477     -1.1169223      127.74911    
      7960   139.67385      158.5          158.5          158.5         -1.5559363     -2.3107025     -0.10436131    -2.252745       139.67385    
      7980   124.19267      158.5          158.5          158.5          1.97918        0.73432721     2.9337842      2.2694284      124.19267    
      8000   129.50322      158.5          158.5          158.5         -1.729036      -2.7578161     -2.7722603      0.34296837     129.50322    
      8020   128.72241      158.5          158.5          158.5         -1.3277193     -4.9264274      0.074172183    0.86909737     128.72241    
      8040   113.32724      158.5          158.5          158.5          0.6163386     -1.9544205      2.3143775      1.4890589      113.32724    
      8060   127.22789      158.5          158.5          158.5          0.67452323     1.6818531      1.415241      -1.0735244      127.22789    
      8080   121.26735      158.5          158.5          158.5         -3.0852334     -0.83882946    -5.3752112     -3.0416596      121.26735    
      8100   124.98317      158.5          158.5          158.5         -0.5406575      0.41051639    -2.1983583      0.1658694      124.98317    
      8120   127.36938      158.5          158.5          158.5         -2.5261304     -6.5297563      0.11062415    -1.159259       127.36938    
      8140   118.10071      158.5          158.5          158.5         -2.3930361     -1.672088      -1.2969892     -4.2100309      118.10071    
      8160   120.00925      158.5          158.5          158.5          3.7153852      8.978383       2.5938865     -0.42611385     120.00925    
      8180   124.49049      158.5          158.5          158.5         -2.0347179     -2.6145677     -0.8017925     -2.6877935      124.49049    
      8200   124.49574      158.5          158.5          158.5         -1.1211223     -1.7782615      0.82355979    -2.4086653      124.49574    
      8220   128.93148      158.5          158.5          158.5          1.6140295      3.3118712      2.5925979     -1.0623807      128.93148    
      8240   121.20641      158.5          158.5          158.5         -0.77398951     2.0279153     -0.66349625    -3.6863876      121.20641    
      8260   124.29845      158.5          158.5          158.5          1.5102092     -1.4861761      3.6983194      2.3184843      124.29845    
      8280   137.68854      158.5          158.5          158.5          2.1813132     -2.7490512      2.8301874      6.4628035      137.68854    
      8300   132.69128      158.5          158.5          158.5          1.9125183      4.6715103     -0.62612401     1.6921685      132.69128    
      8320   133.89697      158.5          158.5          158.5         -0.69602364     3.8598856     -2.2574622     -3.6904943      133.89697    
      8340   138.0024       158.5          158.5          158.5          3.013455      -5.1250066      6.6276757      7.537696       138.0024     
      8360   143.7759       158.5          158.5          158.5          0.60323117    -5.0869138      3.7848276      3.1117797      143.7759     
      8380   146.8351       158.5          158.5          158.5         -2.6268131      5.9485397     -5.7731287     -8.0558504      146.8351     
      8400   141.26627      158.5          158.5          158.5          3.7564064      5.1385744      2.6306037      3.500041       141.26627    
      8420   132.78499      158.5          158.5          158.5         -3.0312442     -10.184618     -3.1030643      4.1939496      132.78499    
      8440   140.95884      158.5          158.5          158.5         -0.77747256    -1.1550244     -3.3783344      2.2009412      140.95884    
      8460   138.78995      158.5          158.5          158.5          0.83253196     4.9576504     -1.3594958     -1.1005587      138.78995    
      8480   136.9762       158.5          158.5          158.5         -3.1621731     -5.3007913     -3.1684846     -1.0172434      136.9762     
      8500   128.64696      158.5          158.5          158.5          0.66360047    -5.0733453      1.9185842      5.1455625      128.64696    
      8520   144.8036       158.5          158.5          158.5          0.76154009     0.72179953     1.8829684     -0.3201477      144.8036     
      8540   129.59989      158.5          158.5          158.5         -1.103884       2.7792457     -0.50744475    -5.5834528      129.59989    
      8560   140.80415      158.5          158.5          158.5          1.1389448     -1.7114323      3.8062939      1.3219727      140.80415    
      8580   129.79388      158.5          158.5          158.5          0.43071785    -2.5075715      3.6300641      0.16966097     129.79388    
      8600   126.87189      158.5          158.5          158.5         -2.1381412     -0.26022895    -0.8271957     -5.3269988      126.87189    
      8620   140.06007      158.5          158.5          158.5         -1.2124248      4.2163464     -5.2064204     -2.6472005      140.06007    
      8640   118.33142      158.5          158.5          158.5          0.14286215     1.4829349     -0.43061521    -0.62373321     118.33142    
      8660   144.34838      158.5          158.5          158.5         -3.6006369     -8.5245971      1.6577053     -3.9350188      144.34838    
      8680   126.66235      158.5          158.5          158.5         -0.33077548    -2.4880127     -1.00724        2.5029263      126.66235    
      8700   126.93291      158.5          158.5          158.5          1.604934       3.021802       0.71214801     1.080852       126.93291    
      8720   133.43378      158.5          158.5          158.5         -2.115569      -2.0186075      0.13626922    -4.4643687      133.43378    
      8740   134.59412      158.5          158.5          158.5          5.3986237      4.8594389      4.9251285      6.4113039      134.59412    
      8760   137.87492      158.5          158.5          158.5          1.9758354      1.3940347      0.63144284     3.9020286      137.87492    
      8780   146.19809      158.5          158.5          158.5         -2.530559       0.23261182    -3.6944481     -4.1298408      146.19809    
      8800   161.95014      158.5          158.5          158.5          4.125272       5.232977       5.7400973      1.4027418      161.95014    
      8820   133.47346      158.5          158.5          158.5         -4.4130957     -6.9842044     -4.1817596     -2.0733232      133.47346    
      8840   142.82074      158.5          158.5          158.5          0.78704077     2.4382822     -2.8211251      2.7439651      142.82074    
      8860   142.66682      158.5          158.5          158.5          3.1004978      6.5529451      1.4935508      1.2549974      142.66682    
      8880   147.1923       158.5          158.5          158.5         -6.4535137     -7.1507754     -1.2885073     -10.921258      147.1923     
      8900   146.55466      158.5          158.5          158.5          4.1520191     -0.029872089    3.6340996      8.8518299      146.55466    
      8920   145.48627      158.5          158.5          158.5         -2.5219487      0.036962473   -7.1104488     -0.49235975     145.48627    
      8940   143.46558      158.5          158.5          158.5         -2.6044774      0.80513071     0.097491268   -8.7160542      143.46558    
      8960   135.61389      158.5          158.5          158.5          4.0968308      2.986456       7.9702141      1.3338222      135.61389    
      8980   131.01559      158.5          158.5          158.5         -3.2646747     -5.2709117     -4.3689042     -0.15420806     131.01559    
      9000   145.94881      158.5          158.5          158.5          0.42900704     2.316995      -1.1643918      0.13441792     145.94881    
      9020   143.67229      158.5          158.5          158.5          3.4684193      4.4845311      7.9088332     -1.9881063      143.67229    
      9040   137.09168      158.5          158.5          158.5         -0.031175126   -0.22702456     1.946298      -1.8127988      137.09168    
      9060   135.91842      158.5          158.5          158.5          1.0349886      1.1444073     -3.0140693      4.9746278      135.91842    
      9080   138.59722      158.5          158.5          158.5         -1.4782356     -2.3855508     -3.3073996      1.2582437      138.59722    
      9100   126.13879      158.5          158.5          158.5         -1.7501569     -1.3521526      1.9132441     -5.8115621      126.13879    
      9120   127.91836      158.5          158.5          158.5         -1.0307192      0.63701633     1.6793437     -5.4085177      127.91836    
      9140   133.30937      158.5          158.5          158.5          0.52833217    -1.0280635      2.8179238     -0.2048638      133.30937    
      9160   120.29836      158.5          158.5          158.5          3.6589354      4.4825766      4.0978284      2.3964012      120.29836    
      9180   127.64793      158.5          158.5          158.5         -0.84355658     1.6576525     -0.66659174    -3.5217305      127.64793    
      9200   134.44752      158.5          158.5          158.5          2.2419819      1.2434092      1.424085       4.0584516      134.44752    
      9220   125.89088      158.5          158.5          158.5          2.1264361     -1.6766695     -1.1224424      9.1784202      125.89088    
      9240   135.20892      158.5          158.5          158.5         -3.9564544     -4.0170224     -8.1470478      0.29470696     135.20892    
      9260   123.40347      158.5          158.5          158.5          2.4016552      3.6077495      3.418324       0.17889217     123.40347    
      9280   123.30268      158.5          158.5          158.5         -2.0479986     -1.2520843      2.2038506     -7.0957622      123.30268    
      9300   138.51175      158.5          158.5          158.5         -2.6453538     -2.5188616     -4.5781567     -0.83904306     138.51175    
      9320   128.49729      158.5          158.5          158.5          2.7962753      4.8764714     -3.1280488      6.6404033      128.49729    
      9340   118.58615      158.5          158.5          158.5          0.29635957     2.9791148      0.5928743     -2.6829104      118.58615    
      9360   131.27446      158.5          158.5          158.5         -1.3450505     -1.2485461     -1.492184      -1.2944213      131.27446    
      9380   148.2858       158.5          158.5          158.5         -0.4235932     -2.631165      -1.1350848      2.4954701      148.2858     
      9400   142.16567      158.5          158.5          158.5          0.21343704    -1.4798052      1.6832973      0.43681906     142.16567    
      9420   128.68769      158.5          158.5          158.5          0.42692886     1.3559983      0.84393068    -0.91914245     128.68769    
      9440   143.34411      158.5          158.5          158.5          3.6013649      3.1169244      3.7118965      3.9752736      143.34411    
      9460   145.35861      158.5          158.5          158.5          0.31578439    -2.1612896      2.8247314      0.2839113      145.35861    
      9480   146.06465      158.5          158.5          158.5         -2.094379      -2.0631661     -2.5930427     -1.6269281      146.06465    
      9500   138.82699      158.5          158.5          158.5          0.8153321      1.7137607      2.2913883     -1.5591527      138.82699    
      9520   131.88859      158.5          158.5          158.5         -2.3187568     -5.3761249      2.5753884     -4.1555338      131.88859    
      9540   143.69267      158.5          158.5          158.5          0.54380217    -1.9243095     -1.6892053      5.2449213      143.69267    
[...]
    104300  -172.27762      158.5          158.5          158.5         -6.6723249     -2.6727086     -10.156088     -7.1881781     -172.27762    
    104320  -156.39817      158.5          158.5          158.5          3.6017694      5.1707395      0.80756002     4.8270087     -156.39817    
    104340  -166.15726      158.5          158.5          158.5          1.4544054      0.53004061     3.4358789      0.3972968     -166.15726    
    104360  -155.91862      158.5          158.5          158.5         -4.1316442     -6.1673636     -0.2737739     -5.9537953     -155.91862    
    104380  -168.20843      158.5          158.5          158.5          4.2502007      5.625034       0.99596498     6.1296031     -168.20843    
    104400  -158.10604      158.5          158.5          158.5         -4.3411476     -5.3035178     -4.2597691     -3.4601559     -158.10604    
    104420  -150.9157       158.5          158.5          158.5         -1.8665454     -3.819187       0.14885033    -1.9292995     -150.9157     
    104440  -140.90995      158.5          158.5          158.5          2.2406031      3.5793057      0.79457093     2.3479326     -140.90995    
    104460  -146.39886      158.5          158.5          158.5         -3.9850456     -1.8522707     -7.0195271     -3.0833389     -146.39886    
    104480  -168.20459      158.5          158.5          158.5          2.2419604      4.5142522      2.0969737      0.11465536    -168.20459    
    104500  -140.79184      158.5          158.5          158.5         -0.023782329   -1.6651997      3.62939       -2.0355373     -140.79184    
    104520  -134.22924      158.5          158.5          158.5         -1.6587571     -2.5752311     -1.6117083     -0.78933194    -134.22924    
    104540  -128.96956      158.5          158.5          158.5          1.9927344      2.3501686     -1.9800099      5.6080444     -128.96956    
    104560  -125.5338       158.5          158.5          158.5         -2.2511899     -0.9015587     -4.8315612     -1.0204497     -125.5338     
    104580  -145.46362      158.5          158.5          158.5          0.85008907    -3.6290909      4.4177255      1.7616326     -145.46362    
    104600  -139.92031      158.5          158.5          158.5         -1.9141712     -5.2415482     -1.2143641      0.7133987     -139.92031    
    104620  -149.22637      158.5          158.5          158.5          2.4836287      4.5134341     -2.6038057      5.5412576     -149.22637    
    104640  -126.55855      158.5          158.5          158.5          2.3212304      7.7298549     -2.1189079      1.3527443     -126.55855    
    104660  -140.97414      158.5          158.5          158.5         -4.7680719     -2.8596442     -4.0321632     -7.4124083     -140.97414    
    104680  -138.32253      158.5          158.5          158.5          4.3882314     -0.86302986     3.638797       10.388927     -138.32253    
    104700  -143.10868      158.5          158.5          158.5         -2.270458      -4.9542525     -2.8883116      1.0311901     -143.10868    
    104720  -134.44288      158.5          158.5          158.5         -0.49093146     3.0803281     -2.0882452     -2.4648773     -134.44288    
    104740  -126.55507      158.5          158.5          158.5          5.9019804      6.8519225      3.5912657      7.2627529     -126.55507    
    104760  -139.48934      158.5          158.5          158.5         -2.4148981     -1.0747798     -4.5896647     -1.5802498     -139.48934    
    104780  -134.93296      158.5          158.5          158.5          3.5794216     -0.040375617    5.5555898      5.2230505     -134.93296    
    104800  -155.45231      158.5          158.5          158.5          0.34392533     2.326183      -5.7242064      4.4297994     -155.45231    
    104820  -146.69394      158.5          158.5          158.5         -1.5985604     -0.0036864948  -4.3585712     -0.43342356    -146.69394    
    104840  -161.65777      158.5          158.5          158.5          2.6154248      0.0090000165   8.0042035     -0.16692914    -161.65777    
    104860  -155.61438      158.5          158.5          158.5         -1.8751311     -4.0161493     -1.8809403      0.27169623    -155.61438    
    104880  -138.60497      158.5          158.5          158.5          2.135036       3.8490897     -0.57621519     3.1322335     -138.60497    
    104900  -150.0973       158.5          158.5          158.5         -0.40617561    -0.097396249    0.39329453    -1.5144251     -150.0973     
    104920  -154.12013      158.5          158.5          158.5          0.393072      -4.4178188      1.5907874      4.0062474     -154.12013    
    104940  -157.34694      158.5          158.5          158.5          1.1309539     -0.13969111    -0.081571602    3.6141245     -157.34694    
    104960  -163.26364      158.5          158.5          158.5          2.488272       5.009991       0.32009245     2.1347327     -163.26364    
    104980  -153.68369      158.5          158.5          158.5         -1.6720689     -2.7503001     -2.0295583     -0.23634826    -153.68369    
    105000  -157.00049      158.5          158.5          158.5          1.5834377      1.4266342      2.4708208      0.852858      -157.00049    
    105020  -170.14506      158.5          158.5          158.5          2.4754259      1.7021739      3.9980002      1.7261036     -170.14506    
    105040  -160.4974       158.5          158.5          158.5         -1.9040818     -5.3043067     -0.44678671     0.038847993   -160.4974     
    105060  -153.80693      158.5          158.5          158.5          0.44471446    -1.1163378      3.4669144     -1.0164332     -153.80693    
    105080  -147.65845      158.5          158.5          158.5         -2.8215917     -2.6818484     -2.9577128     -2.8252139     -147.65845    
    105100  -138.46853      158.5          158.5          158.5          0.4731598      2.7618074     -3.5576458      2.2153178     -138.46853    
    105120  -143.84063      158.5          158.5          158.5          0.46583117     2.7480154      1.1075943     -2.4581163     -143.84063    
    105140  -129.66717      158.5          158.5          158.5         -3.1878404     -2.6001163     -2.7618705     -4.2015343     -129.66717    
    105160  -137.72465      158.5          158.5          158.5          2.0952147      4.8725448      0.4325353      0.98056392    -137.72465    
    105180  -131.44593      158.5          158.5          158.5         -2.4466511     -2.1029781     -0.51465174    -4.7223234     -131.44593    
    105200  -116.40347      158.5          158.5          158.5         -2.6707764     -5.8790208     -0.63927712    -1.4940313     -116.40347    
    105220  -155.07017      158.5          158.5          158.5          1.8240555      5.2032602      2.6094837     -2.3405775     -155.07017    
    105240  -115.68381      158.5          158.5          158.5          0.40385579     6.5196666     -0.94202061    -4.3660786     -115.68381    
    105260  -143.2556       158.5          158.5          158.5         -0.37714281    -0.66083038    -1.2980046      0.82740652    -143.2556     
    105280  -128.47037      158.5          158.5          158.5         -0.98915111    -3.1232839      2.2951717     -2.1393411     -128.47037    
    105300  -127.64088      158.5          158.5          158.5         -1.7562275      4.9030985     -3.4103693     -6.7614118     -127.64088    
    105320  -121.09482      158.5          158.5          158.5          1.8373909      6.3518113     -1.7995324      0.95989366    -121.09482    
    105340  -143.27898      158.5          158.5          158.5          0.65008489    -1.9484936      4.0053971     -0.10664881    -143.27898    
    105360  -131.04286      158.5          158.5          158.5         -4.9851783     -7.3467132     -1.2535866     -6.3552353     -131.04286    
    105380  -126.48359      158.5          158.5          158.5         -3.0813467     -2.4121698     -2.0895669     -4.7423033     -126.48359    
    105400  -141.98724      158.5          158.5          158.5          1.4035029      8.4150795     -3.6135469     -0.59102393    -141.98724    
    105420  -132.99612      158.5          158.5          158.5         -1.3409882      1.1671316     -0.27435784    -4.9157383     -132.99612    
    105440  -133.45603      158.5          158.5          158.5         -0.34285277    -4.7091288      3.476947       0.20362351    -133.45603    
    105460  -134.80971      158.5          158.5          158.5          2.8681557      4.4674311      1.2449581      2.8920777     -134.80971    
    105480  -134.81785      158.5          158.5          158.5         -3.0008405     -2.4730744     -2.820495      -3.7089521     -134.81785    
    105500  -152.65746      158.5          158.5          158.5         -2.0940219     -7.8626559     -0.19141314     1.7720033     -152.65746    
    105520  -154.08052      158.5          158.5          158.5          1.1387477      0.41860204     1.4091473      1.5884936     -154.08052    
    105540  -155.82106      158.5          158.5          158.5          2.3807197      5.6391824      0.78408372     0.71889308    -155.82106    
    105560  -145.23161      158.5          158.5          158.5         -1.3285539     -3.326703      -1.2307777      0.57181892    -145.23161    
    105580  -155.31472      158.5          158.5          158.5          0.57744377    -5.0408188      3.3725112      3.4006389     -155.31472    
    105600  -166.66129      158.5          158.5          158.5         -0.90716055    -3.9653798     -0.62657501     1.8704732     -166.66129    
    105620  -151.11206      158.5          158.5          158.5         -3.4494729     -3.9856021     -4.5386507     -1.8241658     -151.11206    
    105640  -164.24773      158.5          158.5          158.5          3.1708578      3.4265751      2.0877193      3.9982791     -164.24773    
    105660  -167.92598      158.5          158.5          158.5         -1.5399758     -2.3337961     -1.8043698     -0.4817616     -167.92598    
    105680  -161.41446      158.5          158.5          158.5         -0.66032267    -4.1080184     -0.067033037    2.1940834     -161.41446    
    105700  -157.01129      158.5          158.5          158.5          0.80336488     1.100903      -2.5459226      3.8551142     -157.01129    
    105720  -166.54969      158.5          158.5          158.5         -2.8074856     -0.89104257    -2.0441118     -5.4873025     -166.54969    
    105740  -169.9019       158.5          158.5          158.5          4.4338364      6.2569803      5.3547962      1.6897327     -169.9019     
    105760  -156.19644      158.5          158.5          158.5          3.1394247      2.2600604      2.3001387      4.8580751     -156.19644    
    105780  -158.22794      158.5          158.5          158.5          0.37017326     3.4604397     -1.2046259     -1.145294      -158.22794    
    105800  -141.84258      158.5          158.5          158.5          1.8005166      6.2878224      1.1669077     -2.0531803     -141.84258    
    105820  -172.80607      158.5          158.5          158.5         -0.28629037    -2.0528642      2.281656      -1.0876628     -172.80607    
    105840  -155.83319      158.5          158.5          158.5          3.5232635     -1.5126481      6.6121742      5.4702643     -155.83319    
    105860  -148.32896      158.5          158.5          158.5          1.4541314      5.3159676     -0.26401338    -0.68955998    -148.32896    
    105880  -159.50338      158.5          158.5          158.5          0.13793808     2.9186694     -1.4273157     -1.0775394     -159.50338    
    105900  -143.87916      158.5          158.5          158.5         -0.1893948     -1.8308089      0.48905273     0.77357178    -143.87916    
    105920  -153.71064      158.5          158.5          158.5          0.098538437    0.31981901    -0.4078893      0.3836856     -153.71064    
    105940  -133.93027      158.5          158.5          158.5         -2.4426377     -4.8052664     -2.1362482     -0.38639852    -133.93027    
    105960  -150.78886      158.5          158.5          158.5          0.86775496    -2.6297143      3.1729273      2.0600518     -150.78886    
    105980  -125.90849      158.5          158.5          158.5          1.5619855      2.6002942      1.5403186      0.54534361    -125.90849    
    106000  -143.87307      158.5          158.5          158.5         -0.83706672    -3.4479021      0.12513253     0.81156937    -143.87307    
    106020  -133.7224       158.5          158.5          158.5          0.57720982    -1.0015703      4.9889066     -2.2557068     -133.7224     
    106040  -150.54567      158.5          158.5          158.5         -2.7623587     -4.7887412     -1.2039226     -2.2944124     -150.54567    
    106060  -133.99502      158.5          158.5          158.5          0.96816696    -2.8078401     -0.90618355     6.6185245     -133.99502    
    106080  -143.36359      158.5          158.5          158.5          0.53554373    -3.0006575      1.790488       2.8168007     -143.36359    
    106100  -142.51746      158.5          158.5          158.5         -0.20460188    -2.5171893      1.1299249      0.77345876    -142.51746    
    106120  -136.49331      158.5          158.5          158.5          2.2754433      3.3996474      1.8190394      1.607643      -136.49331    
    106140  -144.57712      158.5          158.5          158.5         -0.36300359    -1.7017946      0.10409818     0.50868565    -144.57712    
    106160  -126.20837      158.5          158.5          158.5         -3.3974919     -7.5050465     -3.3628477      0.67541832    -126.20837    
    106180  -141.87566      158.5          158.5          158.5          0.88128567     0.13890789     0.51817048     1.9867786     -141.87566    
    106200  -121.30131      158.5          158.5          158.5         -2.0921191      0.49668593    -4.0974296     -2.6756135     -121.30131    
    106220  -152.07915      158.5          158.5          158.5         -1.1711254      0.61676029    -2.9502949     -1.1798416     -152.07915    
    106240  -151.52403      158.5          158.5          158.5         -1.983924      -4.5276627     -1.7803244      0.35621508    -151.52403    
    106260  -150.86592      158.5          158.5          158.5         -1.1648966     -0.36860243    -3.5837036      0.45761623    -150.86592    
    106280  -158.39499      158.5          158.5          158.5          2.0755069      4.5587462      2.7900325     -1.122258      -158.39499    
    106300  -151.36851      158.5          158.5          158.5          0.58116096     0.66337938     1.9170665     -0.83696297    -151.36851    
    106320  -160.27156      158.5          158.5          158.5          3.8579005      4.7637115     -0.59963704     7.409627      -160.27156    
    106340  -158.26122      158.5          158.5          158.5         -0.86079946     1.5753507     -0.72799186    -3.4297573     -158.26122    
    106360  -167.30686      158.5          158.5          158.5         -1.4530577     -0.82648976     2.1688449     -5.7015283     -167.30686    
    106380  -161.68546      158.5          158.5          158.5          1.0236278      2.4897184     -0.55905751     1.1402225     -161.68546    
    106400  -171.50941      158.5          158.5          158.5         -4.5312485     -3.0675411     -3.0536245     -7.47258       -171.50941    
    106420  -166.72065      158.5          158.5          158.5          5.7262702      3.3691168      10.007385      3.8023092     -166.72065    
    106440  -157.97101      158.5          158.5          158.5         -2.4425617      1.3154452     -5.3232434     -3.3198869     -157.97101    
    106460  -160.18331      158.5          158.5          158.5         -1.6329463      0.68613163    -2.1936253     -3.3913452     -160.18331    
    106480  -162.02321      158.5          158.5          158.5          4.5356226      0.40018165     7.5480891      5.6585969     -162.02321    
    106500  -142.73052      158.5          158.5          158.5         -7.9194913     -6.0401688     -11.73248      -5.9858248     -142.73052    
    106520  -155.82367      158.5          158.5          158.5          4.3165215      2.9102054      2.5842503      7.4551089     -155.82367    
    106540  -153.77159      158.5          158.5          158.5         -0.62788073    -3.0668605      2.3302976     -1.1470793     -153.77159    
    106560  -165.26258      158.5          158.5          158.5         -2.3206401     -0.38687283    -1.7533371     -4.8217105     -165.26258    
    106580  -142.01208      158.5          158.5          158.5          5.1139141      3.5013855      4.145189       7.6951679     -142.01208    
    106600  -158.94549      158.5          158.5          158.5         -5.3560807     -5.7636679     -9.3312235     -0.97335085    -158.94549    
    106620  -141.29208      158.5          158.5          158.5          4.3184847      3.0843137      6.4822571      3.3888832     -141.29208    
    106640  -143.23048      158.5          158.5          158.5          1.012247      -1.1610783      4.4785711     -0.2807519     -143.23048    
    106660  -151.74304      158.5          158.5          158.5         -1.8734325     -1.4475999     -0.44869957    -3.723998      -151.74304    
    106680  -156.51595      158.5          158.5          158.5          2.0296331      0.75926644     0.65976408     4.6698689     -156.51595    
    106700  -140.98968      158.5          158.5          158.5         -4.0909772     -6.5332219     -0.35871574    -5.3809939     -140.98968    
    106720  -145.51684      158.5          158.5          158.5          2.1066249      5.6442885      3.6360518     -2.9604656     -145.51684    
    106740  -136.37283      158.5          158.5          158.5         -1.5916633      1.0010949     -6.3821496      0.60606463    -136.37283    
    106760  -142.16912      158.5          158.5          158.5          1.6089834     -0.54437659     1.0886573      4.2826695     -142.16912    
    106780  -135.11901      158.5          158.5          158.5          0.034055662   -2.886803       4.3414482     -1.3524782     -135.11901    
    106784  -134.2468       158.5          158.5          158.5          2.4359832      0.35859999     4.4539656      2.4953839     -134.2468     
Loop time of 7.87547 on 1 procs for 100000 steps with 100 atoms

Performance: 1097.078 ns/day, 0.022 hours/ns, 12697.657 timesteps/s, 1.270 Matom-step/s
90.3% CPU use with 1 MPI tasks x no OpenMP threads

MPI task timing breakdown:
Section |  min time  |  avg time  |  max time  |%varavg| %total
---------------------------------------------------------------
Pair    | 5.346      | 5.346      | 5.346      |   0.0 | 67.88
Bond    | 1.3626     | 1.3626     | 1.3626     |   0.0 | 17.30
Neigh   | 0.53018    | 0.53018    | 0.53018    |   0.0 |  6.73
Comm    | 0.0252     | 0.0252     | 0.0252     |   0.0 |  0.32
Output  | 0.33041    | 0.33041    | 0.33041    |   0.0 |  4.20
Modify  | 0.23222    | 0.23222    | 0.23222    |   0.0 |  2.95
Other   |            | 0.04888    |            |       |  0.62

Nlocal:            100 ave         100 max         100 min
Histogram: 1 0 0 0 0 0 0 0 0 0
Nghost:              0 ave           0 max           0 min
Histogram: 1 0 0 0 0 0 0 0 0 0
Neighs:           4651 ave        4651 max        4651 min
Histogram: 1 0 0 0 0 0 0 0 0 0
FullNghs:            0 ave           0 max           0 min
Histogram: 1 0 0 0 0 0 0 0 0 0

Total # of neighbors = 4651
Ave neighs/atom = 46.51
Ave special neighs/atom = 5.88
Neighbor list builds = 5453
Dangerous builds = 909
print "All done"
All done
Total wall time: 0:00:34
