read_data	InitialFile.txt
Reading data file ...
  orthogonal box = (0 0 0) to (158.5 158.5 158.5)
  1 by 1 by 1 MPI processor grid
WARNING: Atom style in data file atomic differs from currently defined atom style molecular (src/src/read_data.cpp:621)
  reading atoms ...
  100 atoms
  scanning bonds ...
  1 = max bonds/atom
  scanning angles ...
  1 = max angles/atom
  scanning dihedrals ...
  1 = max dihedrals/atom
  reading bonds ...
  99 bonds
  reading angles ...
  98 angles
  reading dihedrals ...
  97 dihedrals
Finding 1-2 1-3 1-4 neighbors ...
  special bond factors lj:    0        0        0       
  special bond factors coul:  0        0        0       
     2 = max # of 1-2 neighbors
     2 = max # of 1-3 neighbors
     4 = max # of 1-4 neighbors
     6 = max # of special neighbors
  special bonds CPU = 0.045 seconds
  read_data CPU = 0.121 seconds

# Dreiding potential information
neighbor	0.4 bin
neigh_modify	every 10 one 10000

bond_style      harmonic
bond_coeff	1 350 1.53
bond_coeff	2 700 1.53

angle_style     harmonic
angle_coeff	1 60 109.5
angle_coeff	2 120 109.5

dihedral_style	multi/harmonic
dihedral_coeff	1 1.73 -4.49 0.776 6.99 0.0
dihedral_coeff	2 1.73 -4.49 0.776 6.99 0.0

pair_style	lj/cut 10.5
pair_coeff	* * 1.0 1.0 10.5
pair_coeff	3 3 2.0 0.5 10.5

compute csym all centro/atom fcc
compute peratom all pe/atom


#####################################################
# Equilibration (Brownian dynamics at 300 K)

velocity 	all create 300.0 1231
fix		1 all nve/limit 0.05
fix 2 all brownian 30.0 12908410 gamma_t 3.0 rng gaussian # Comute a correct 300K simulation, check the value for gamma_t
thermo_style	custom step temp
thermo          10000
timestep	1
run		10000
Generated 0 of 3 mixed pair_coeff terms from geometric mixing rule
WARNING: One or more atoms are time integrated more than once (src/src/modify.cpp:289)
Neighbor list info ...
  update: every = 10 steps, delay = 0 steps, check = yes
  max neighbors/atom: 10000, page size: 100000
  master list distance cutoff = 10.9
  ghost atom cutoff = 10.9
  binsize = 5.45, bins = 30 30 30
  2 neighbor lists, perpetual/occasional/extra = 1 1 0
  (1) pair lj/cut, perpetual
      attributes: half, newton on
      pair build: half/bin/newton
      stencil: half/bin/3d
      bin: standard
  (2) compute centro/atom, occasional
      attributes: full, newton on
      pair build: full/bin
      stencil: full/bin/3d
      bin: standard
Per MPI rank memory allocation (min/avg/max) = 8.15 | 8.15 | 8.15 Mbytes
   Step          Temp     
         0   300          
     10000   301.14599    
Loop time of 0.819609 on 1 procs for 10000 steps with 100 atoms

Performance: 1054.162 ns/day, 0.023 hours/ns, 12200.945 timesteps/s, 1.220 Matom-step/s
51.7% CPU use with 1 MPI tasks x no OpenMP threads

MPI task timing breakdown:
Section |  min time  |  avg time  |  max time  |%varavg| %total
---------------------------------------------------------------
Pair    | 0.13114    | 0.13114    | 0.13114    |   0.0 | 16.00
Bond    | 0.37296    | 0.37296    | 0.37296    |   0.0 | 45.51
Neigh   | 0.033144   | 0.033144   | 0.033144   |   0.0 |  4.04
Comm    | 0.034528   | 0.034528   | 0.034528   |   0.0 |  4.21
Output  | 9.4439e-05 | 9.4439e-05 | 9.4439e-05 |   0.0 |  0.01
Modify  | 0.23648    | 0.23648    | 0.23648    |   0.0 | 28.85
Other   |            | 0.01125    |            |       |  1.37

Nlocal:            100 ave         100 max         100 min
Histogram: 1 0 0 0 0 0 0 0 0 0
Nghost:              0 ave           0 max           0 min
Histogram: 1 0 0 0 0 0 0 0 0 0
Neighs:            354 ave         354 max         354 min
Histogram: 1 0 0 0 0 0 0 0 0 0
FullNghs:            0 ave           0 max           0 min
Histogram: 1 0 0 0 0 0 0 0 0 0

Total # of neighbors = 354
Ave neighs/atom = 3.54
Ave special neighs/atom = 5.88
Neighbor list builds = 282
Dangerous builds = 30
unfix 1
unfix 2
write_restart 	restart.${simname}.dreiding1
write_restart 	restart.InitialFile.dreiding1
System init for write_restart ...
Generated 0 of 3 mixed pair_coeff terms from geometric mixing rule

#####################################################
# Define Settings
compute eng all pe/atom
compute eatoms all reduce sum c_eng

#####################################################
# Minimization

dump mydmp all atom 100 dump.lammpstrj

reset_timestep 0
fix 1 all nvt temp 300.0 300.0 100.0
thermo 20
thermo_style custom step pe lx ly lz press pxx pyy pzz c_eatoms
min_style cg
minimize 1e-25 1e-25 500000 1000000
Switching to 'neigh_modify every 1 delay 0 check yes' setting during minimization
Generated 0 of 3 mixed pair_coeff terms from geometric mixing rule
Per MPI rank memory allocation (min/avg/max) = 9.275 | 9.275 | 9.275 Mbytes
   Step         PotEng           Lx             Ly             Lz           Press           Pxx            Pyy            Pzz          c_eatoms   
         0   1395.7321      158.5          158.5          158.5         -88.907148     -88.186106     -88.756729     -89.77861       1395.7321    
        20   1158.7862      158.5          158.5          158.5         -79.267298     -77.387346     -78.161484     -82.253063      1158.7862    
        40   773.6788       158.5          158.5          158.5         -62.081036     -62.010133     -62.515306     -61.71767       773.6788     
        60   433.35936      158.5          158.5          158.5         -43.979917     -42.830821     -44.430225     -44.678706      433.35936    
        80   221.81584      158.5          158.5          158.5         -28.093256     -27.054947     -28.620769     -28.604051      221.81584    
       100   92.688875      158.5          158.5          158.5         -16.907507     -16.45335      -17.853967     -16.415204      92.688875    
       120   44.53856       158.5          158.5          158.5         -10.91724      -10.180075     -10.961377     -11.610269      44.53856     
       140   20.870686      158.5          158.5          158.5         -6.7345819     -6.9796099     -6.7383869     -6.4857487      20.870686    
       160   10.475087      158.5          158.5          158.5         -3.9638938     -4.1692325     -3.6097343     -4.1127146      10.475087    
       180   6.0881489      158.5          158.5          158.5         -2.3920734     -2.5324874     -2.0978712     -2.5458615      6.0881489    
       200   3.8247374      158.5          158.5          158.5         -1.1485799     -1.3877885     -0.93357796    -1.1243733      3.8247374    
       220   2.7927013      158.5          158.5          158.5         -0.22897468    -0.38524131     0.12006806    -0.42175079     2.7927013    
       240   2.3831026      158.5          158.5          158.5          0.097634008    0.019900347    0.32685739    -0.053855717    2.3831026    
       260   2.0129048      158.5          158.5          158.5          0.35342616     0.28149259     0.59520234     0.18358354     2.0129048    
       280   1.979697       158.5          158.5          158.5          0.37726307     0.30807689     0.61510245     0.20860989     1.979697     
       300   1.9315105      158.5          158.5          158.5          0.41078778     0.34152674     0.64657117     0.24426543     1.9315105    
       320   1.4322969      158.5          158.5          158.5          0.79461131     0.72747826     1.0346377      0.62171795     1.4322969    
       340   1.3632128      158.5          158.5          158.5          0.81832157     0.74901932     1.0517321      0.65421328     1.3632128    
       360   1.3048547      158.5          158.5          158.5          0.84395897     0.77164701     1.0935105      0.66671935     1.3048547    
       380   1.2034773      158.5          158.5          158.5          0.8910564      0.81777611     1.1359144      0.71947868     1.2034773    
       400   1.1663661      158.5          158.5          158.5          0.89933512     0.8317459      1.140533       0.72572651     1.1663661    
       420   1.1462903      158.5          158.5          158.5          0.89907381     0.84939078     1.1179089      0.72992176     1.1462903    
       440   0.95833021     158.5          158.5          158.5          0.96096628     0.8952291      1.20141        0.78625979     0.95833021   
       460   0.94990599     158.5          158.5          158.5          0.97825405     0.91219538     1.2174265      0.80514029     0.94990599   
       480   0.87763693     158.5          158.5          158.5          1.0063615      0.9352157      1.2585315      0.82533738     0.87763693   
       500   0.86473965     158.5          158.5          158.5          1.0181272      0.94759078     1.2675635      0.83922738     0.86473965   
       520   0.83998918     158.5          158.5          158.5          0.99536549     0.92922923     1.2337501      0.82311711     0.83998918   
       540   0.8322441      158.5          158.5          158.5          0.98065032     0.92331562     1.1985838      0.82005154     0.8322441    
       560   0.82502706     158.5          158.5          158.5          1.0039734      0.9354165      1.24666        0.8298438      0.82502706   
       580   0.75796523     158.5          158.5          158.5          0.96438383     0.9006335      1.1907272      0.8017908      0.75796523   
       600   0.75310313     158.5          158.5          158.5          1.0114186      0.94476112     1.2501665      0.83932808     0.75310313   
       620   0.74192575     158.5          158.5          158.5          1.011026       0.94265282     1.2522349      0.83819012     0.74192575   
       640   0.73312018     158.5          158.5          158.5          1.0161854      0.94951572     1.2555515      0.84348885     0.73312018   
       660   0.73004618     158.5          158.5          158.5          1.0122377      0.94575363     1.2502231      0.8407363      0.73004618   
       680   0.72500724     158.5          158.5          158.5          1.0132778      0.9470309      1.2508372      0.84196525     0.72500724   
       700   0.70748204     158.5          158.5          158.5          0.85862268     0.74162801     1.1151157      0.71912436     0.70748204   
       720   0.68585028     158.5          158.5          158.5          1.0132422      0.94817163     1.2484674      0.84308747     0.68585028   
       740   0.68369709     158.5          158.5          158.5          1.0172565      0.9460648      1.2631783      0.84252626     0.68369709   
       760   0.6774471      158.5          158.5          158.5          1.0182423      0.95263311     1.2535572      0.84853669     0.6774471    
       780   0.67379105     158.5          158.5          158.5          1.0178993      0.9515092      1.2552025      0.8469862      0.67379105   
       800   0.66164918     158.5          158.5          158.5          1.0160623      0.94938972     1.253755       0.84504212     0.66164918   
       820   0.65109762     158.5          158.5          158.5          1.0195085      0.95036484     1.2618701      0.84629069     0.65109762   
       840   0.63312004     158.5          158.5          158.5          1.0213077      0.95562907     1.2580938      0.85020003     0.63312004   
       860   0.63171015     158.5          158.5          158.5          1.0122056      0.95019865     1.2438412      0.84257685     0.63171015   
       880   0.62978348     158.5          158.5          158.5          1.0165301      0.95079174     1.251065       0.84773361     0.62978348   
       900   0.59444287     158.5          158.5          158.5          1.0184854      0.9541281      1.2514309      0.8498973      0.59444287   
       920   0.59027466     158.5          158.5          158.5          1.0084754      0.94312322     1.2385159      0.84378706     0.59027466   
       940   0.58046958     158.5          158.5          158.5          1.0018044      0.9372693      1.2310876      0.83705628     0.58046958   
       960   0.57492734     158.5          158.5          158.5          1.0179821      0.95249297     1.2522178      0.84923539     0.57492734   
       980   0.57369218     158.5          158.5          158.5          1.0213012      0.9565382      1.2544001      0.85296532     0.57369218   
      1000   0.57192926     158.5          158.5          158.5          1.0204454      0.95530998     1.2544266      0.85159961     0.57192926   
      1020   0.57085429     158.5          158.5          158.5          1.0211796      0.95687415     1.2541222      0.85254248     0.57085429   
      1040   0.56960657     158.5          158.5          158.5          1.0202248      0.95437646     1.2551706      0.85112743     0.56960657   
      1060   0.56928894     158.5          158.5          158.5          1.0215449      0.95625915     1.2559585      0.85241716     0.56928894   
      1080   0.56788128     158.5          158.5          158.5          1.0223912      0.95489579     1.2609557      0.85132203     0.56788128   
      1100   0.56146485     158.5          158.5          158.5          1.0190912      0.95310793     1.2538661      0.8502995      0.56146485   
      1120   0.56124057     158.5          158.5          158.5          1.0215188      0.95461449     1.2582398      0.85170211     0.56124057   
      1140   0.56023095     158.5          158.5          158.5          1.020601       0.95941869     1.2491071      0.85327737     0.56023095   
      1160   0.55674832     158.5          158.5          158.5          1.0219601      0.95311146     1.2627637      0.85000517     0.55674832   
      1180   0.55569199     158.5          158.5          158.5          1.0205206      0.95488683     1.2551225      0.85155235     0.55569199   
      1200   0.55540154     158.5          158.5          158.5          1.019805       0.9566854      1.2500469      0.8526828      0.55540154   
      1220   0.55517708     158.5          158.5          158.5          1.0204022      0.95449338     1.2552646      0.8514487      0.55517708   
      1240   0.55507127     158.5          158.5          158.5          1.0211204      0.95447594     1.2574225      0.85146284     0.55507127   
      1260   0.55496643     158.5          158.5          158.5          1.0217401      0.95531575     1.257887       0.85201758     0.55496643   
      1280   0.55468633     158.5          158.5          158.5          1.0202575      0.95497565     1.2541481      0.85164882     0.55468633   
      1300   0.5545321      158.5          158.5          158.5          1.0199602      0.95511276     1.2530368      0.85173111     0.5545321    
      1320   0.55440497     158.5          158.5          158.5          1.0196456      0.95465115     1.2529629      0.85132264     0.55440497   
      1340   0.55430061     158.5          158.5          158.5          1.0203904      0.95429269     1.2556078      0.85127069     0.55430061   
      1360   0.55416892     158.5          158.5          158.5          1.0192629      0.95339516     1.2537599      0.85063361     0.55416892   
      1380   0.55407304     158.5          158.5          158.5          1.0208172      0.95495796     1.2558637      0.85162998     0.55407304   
      1400   0.5539391      158.5          158.5          158.5          1.0200095      0.95389636     1.2550876      0.8510446      0.5539391    
      1420   0.55384497     158.5          158.5          158.5          1.0212176      0.95604377     1.2553639      0.85224511     0.55384497   
      1440   0.55371037     158.5          158.5          158.5          1.0195345      0.9530611      1.2550956      0.85044689     0.55371037   
      1460   0.55348185     158.5          158.5          158.5          1.020006       0.95379337     1.2553888      0.85083592     0.55348185   
      1480   0.55339365     158.5          158.5          158.5          1.0202613      0.95391193     1.2557906      0.85108148     0.55339365   
      1500   0.552932       158.5          158.5          158.5          1.0202754      0.95428807     1.2552322      0.85130587     0.552932     
      1520   0.55287078     158.5          158.5          158.5          1.0201711      0.95416501     1.255141       0.85120746     0.55287078   
      1540   0.55277194     158.5          158.5          158.5          1.0203935      0.95509454     1.2544029      0.85168309     0.55277194   
      1560   0.55273777     158.5          158.5          158.5          1.0199507      0.95435579     1.2542851      0.85121126     0.55273777   
      1580   0.55269774     158.5          158.5          158.5          1.0203198      0.95451791     1.2550097      0.85143191     0.55269774   
      1600   0.55233795     158.5          158.5          158.5          1.0195659      0.95483038     1.2523085      0.85155879     0.55233795   
      1620   0.55218907     158.5          158.5          158.5          1.0201384      0.95447103     1.2545874      0.85135686     0.55218907   
      1640   0.55218762     158.5          158.5          158.5          1.0200817      0.95438454     1.2545734      0.85128719     0.55218762   
      1660   0.5521769      158.5          158.5          158.5          1.0199571      0.95409916     1.254616       0.85115626     0.5521769    
      1680   0.55217545     158.5          158.5          158.5          1.0202848      0.95449255     1.2549501      0.85141174     0.55217545   
      1700   0.55217237     158.5          158.5          158.5          1.0204194      0.95457959     1.2551641      0.85151439     0.55217237   
      1720   0.55216454     158.5          158.5          158.5          1.0202457      0.95428757     1.255129       0.85132049     0.55216454   
      1740   0.55216012     158.5          158.5          158.5          1.0200667      0.95447621     1.2543797      0.85134408     0.55216012   
      1760   0.5521582      158.5          158.5          158.5          1.0201326      0.95455842     1.2544731      0.85136619     0.5521582    
      1780   0.55215714     158.5          158.5          158.5          1.0201518      0.95432147     1.2548609      0.85127294     0.55215714   
      1800   0.55215614     158.5          158.5          158.5          1.0202907      0.95446039     1.2550086      0.85140302     0.55215614   
      1820   0.5521557      158.5          158.5          158.5          1.0201487      0.9543661      1.2547853      0.85129468     0.5521557    
      1840   0.55215513     158.5          158.5          158.5          1.020119       0.95430245     1.2548036      0.85125094     0.55215513   
      1860   0.55215308     158.5          158.5          158.5          1.0204104      0.95463905     1.2550285      0.85156359     0.55215308   
      1880   0.55215057     158.5          158.5          158.5          1.0203054      0.954567       1.2549017      0.85144759     0.55215057   
      1900   0.55214931     158.5          158.5          158.5          1.0201873      0.95437611     1.254876       0.85130988     0.55214931   
      1920   0.55214892     158.5          158.5          158.5          1.0202736      0.95449109     1.2549204      0.8514095      0.55214892   
      1940   0.5521484      158.5          158.5          158.5          1.0203569      0.95452647     1.2550743      0.8514699      0.5521484    
      1960   0.55214786     158.5          158.5          158.5          1.0201796      0.95440379     1.2548028      0.85133211     0.55214786   
      1980   0.55214721     158.5          158.5          158.5          1.0200066      0.95425129     1.2545957      0.85117284     0.55214721   
      2000   0.55214654     158.5          158.5          158.5          1.0201089      0.95435573     1.2547017      0.85126922     0.55214654   
      2020   0.55214619     158.5          158.5          158.5          1.0202202      0.95443793     1.2548597      0.85136304     0.55214619   
      2040   0.55214592     158.5          158.5          158.5          1.0202209      0.95446505     1.2548364      0.85136125     0.55214592   
      2060   0.5521457      158.5          158.5          158.5          1.0201918      0.9543974      1.2548613      0.85131665     0.5521457    
      2080   0.55214552     158.5          158.5          158.5          1.0202626      0.95445171     1.2549537      0.85138237     0.55214552   
      2100   0.55214535     158.5          158.5          158.5          1.0202722      0.95450013     1.2548929      0.85142344     0.55214535   
      2120   0.5521453      158.5          158.5          158.5          1.0202387      0.95446334     1.2548663      0.8513866      0.5521453    
      2140   0.55214524     158.5          158.5          158.5          1.0201568      0.95440095     1.2547492      0.85132018     0.55214524   
      2160   0.55214502     158.5          158.5          158.5          1.0200881      0.95429979     1.2547297      0.85123478     0.55214502   
      2180   0.55214472     158.5          158.5          158.5          1.0201239      0.95434065     1.2547657      0.8512652      0.55214472   
      2200   0.55214435     158.5          158.5          158.5          1.0199867      0.95417638     1.2546581      0.8511255      0.55214435   
      2220   0.5521438      158.5          158.5          158.5          1.0199464      0.95417724     1.2545651      0.85109674     0.5521438    
      2240   0.55214238     158.5          158.5          158.5          1.0202037      0.95446962     1.2547594      0.85138199     0.55214238   
      2260   0.55214164     158.5          158.5          158.5          1.0203741      0.95456909     1.2550573      0.85149575     0.55214164   
      2280   0.55214152     158.5          158.5          158.5          1.020324       0.95455173     1.2549486      0.8514718      0.55214152   
      2300   0.5521414      158.5          158.5          158.5          1.0202314      0.95443404     1.2548929      0.85136718     0.5521414    
      2320   0.55214121     158.5          158.5          158.5          1.0202012      0.95445701     1.2547853      0.85136113     0.55214121   
      2340   0.55214102     158.5          158.5          158.5          1.0201898      0.95441047     1.2548276      0.85133129     0.55214102   
      2360   0.55214085     158.5          158.5          158.5          1.0201017      0.95430618     1.2547642      0.85123473     0.55214085   
      2380   0.55214071     158.5          158.5          158.5          1.0200496      0.95425337     1.2547086      0.85118673     0.55214071   
      2400   0.55214064     158.5          158.5          158.5          1.0200738      0.95429201     1.2547102      0.85121929     0.55214064   
      2420   0.55214059     158.5          158.5          158.5          1.0201248      0.95434728     1.2547551      0.85127199     0.55214059   
      2440   0.55214051     158.5          158.5          158.5          1.0202123      0.95443885     1.2548393      0.85135881     0.55214051   
      2460   0.55214045     158.5          158.5          158.5          1.0202557      0.95446011     1.2549222      0.85138468     0.55214045   
      2480   0.55214039     158.5          158.5          158.5          1.020271       0.9544948      1.2548992      0.85141901     0.55214039   
      2500   0.55214031     158.5          158.5          158.5          1.0203573      0.95456776     1.2550112      0.85149308     0.55214031   
      2520   0.55214019     158.5          158.5          158.5          1.0203419      0.95452517     1.2550315      0.85146899     0.55214019   
      2540   0.55214003     158.5          158.5          158.5          1.0202514      0.95445139     1.2549182      0.8513847      0.55214003   
      2560   0.55213985     158.5          158.5          158.5          1.0201861      0.95437932     1.2548635      0.85131561     0.55213985   
      2580   0.55213978     158.5          158.5          158.5          1.020192       0.95441306     1.2548242      0.85133887     0.55213978   
      2600   0.55213974     158.5          158.5          158.5          1.0201985      0.95441811     1.2548361      0.85134133     0.55213974   
      2620   0.5521397      158.5          158.5          158.5          1.0201659      0.95436822     1.2548246      0.85130492     0.5521397    
      2640   0.55213962     158.5          158.5          158.5          1.0201922      0.95440345     1.2548413      0.85133175     0.55213962   
      2660   0.55213951     158.5          158.5          158.5          1.0202457      0.95447137     1.2548764      0.85138934     0.55213951   
      2680   0.55213948     158.5          158.5          158.5          1.0202563      0.95446992     1.2549018      0.85139719     0.55213948   
      2700   0.55213945     158.5          158.5          158.5          1.0202274      0.95445673     1.2548493      0.85137607     0.55213945   
      2720   0.55213944     158.5          158.5          158.5          1.0202384      0.95446521     1.2548648      0.85138531     0.55213944   
      2740   0.55213942     158.5          158.5          158.5          1.020235       0.95446203     1.2548605      0.85138238     0.55213942   
      2760   0.55213939     158.5          158.5          158.5          1.0201801      0.95439984     1.2548151      0.85132539     0.55213939   
      2780   0.55213936     158.5          158.5          158.5          1.0201506      0.95437567     1.2547775      0.85129853     0.55213936   
      2800   0.55213933     158.5          158.5          158.5          1.0201648      0.95438335     1.2548038      0.85130726     0.55213933   
      2820   0.5521393      158.5          158.5          158.5          1.0201879      0.95442777     1.2547949      0.85134109     0.5521393    
      2840   0.55213926     158.5          158.5          158.5          1.0201983      0.95441315     1.2548422      0.85133953     0.55213926   
      2860   0.55213924     158.5          158.5          158.5          1.020212       0.95444062     1.2548372      0.85135828     0.55213924   
      2880   0.55213922     158.5          158.5          158.5          1.0202521      0.95446992     1.2548926      0.85139386     0.55213922   
      2900   0.55213919     158.5          158.5          158.5          1.0202665      0.95449424     1.2548928      0.85141252     0.55213919   
      2920   0.55213914     158.5          158.5          158.5          1.0202649      0.95444135     1.2549714      0.85138207     0.55213914   
      2940   0.55213909     158.5          158.5          158.5          1.0202485      0.95446555     1.2548898      0.8513902      0.55213909   
      2960   0.55213905     158.5          158.5          158.5          1.0202584      0.95447527     1.2548975      0.85140238     0.55213905   
      2980   0.55213903     158.5          158.5          158.5          1.0202506      0.95446994     1.2548882      0.85139363     0.55213903   
      3000   0.55213901     158.5          158.5          158.5          1.0201909      0.95442439     1.2548065      0.85134185     0.55213901   
      3020   0.552139       158.5          158.5          158.5          1.0202257      0.95444424     1.2548653      0.85136746     0.552139     
      3040   0.55213899     158.5          158.5          158.5          1.0202262      0.95444902     1.2548589      0.85137058     0.55213899   
      3060   0.55213897     158.5          158.5          158.5          1.0201933      0.95441864     1.2548202      0.851341       0.55213897   
      3080   0.55213893     158.5          158.5          158.5          1.0202292      0.95444076     1.2548845      0.85136246     0.55213893   
      3100   0.55213888     158.5          158.5          158.5          1.0202218      0.95445294     1.2548395      0.85137296     0.55213888   
      3120   0.55213885     158.5          158.5          158.5          1.0202286      0.95444049     1.2548751      0.85137031     0.55213885   
      3140   0.55213883     158.5          158.5          158.5          1.0202128      0.95443711     1.2548431      0.85135819     0.55213883   
      3160   0.55213881     158.5          158.5          158.5          1.0202186      0.95444594     1.2548444      0.85136541     0.55213881   
      3180   0.5521388      158.5          158.5          158.5          1.0202167      0.95443302     1.254856       0.85136098     0.5521388    
      3200   0.55213879     158.5          158.5          158.5          1.0202067      0.95442738     1.25484        0.85135273     0.55213879   
      3220   0.55213877     158.5          158.5          158.5          1.0201988      0.95441968     1.2548337      0.85134288     0.55213877   
      3240   0.55213874     158.5          158.5          158.5          1.020196       0.95441702     1.2548291      0.85134189     0.55213874   
      3260   0.55213872     158.5          158.5          158.5          1.0202211      0.95446226     1.2548253      0.85137567     0.55213872   
      3280   0.5521387      158.5          158.5          158.5          1.0202075      0.95444311     1.2548201      0.85135947     0.5521387    
      3300   0.55213868     158.5          158.5          158.5          1.0202018      0.95442246     1.254837       0.85134601     0.55213868   
      3320   0.55213867     158.5          158.5          158.5          1.0202106      0.9544333      1.2548413      0.85135712     0.55213867   
      3340   0.55213866     158.5          158.5          158.5          1.0202299      0.95444828     1.2548673      0.85137396     0.55213866   
      3360   0.55213864     158.5          158.5          158.5          1.0201969      0.95441792     1.2548303      0.8513424      0.55213864   
      3380   0.55213862     158.5          158.5          158.5          1.0202076      0.95443082     1.2548392      0.85135277     0.55213862   
      3400   0.5521386      158.5          158.5          158.5          1.02022        0.95444212     1.2548512      0.85136676     0.5521386    
      3420   0.55213858     158.5          158.5          158.5          1.0202241      0.95444715     1.254855       0.85136999     0.55213858   
      3440   0.55213857     158.5          158.5          158.5          1.0202107      0.95442975     1.2548485      0.85135387     0.55213857   
      3460   0.55213856     158.5          158.5          158.5          1.0202027      0.95442814     1.2548295      0.85135034     0.55213856   
      3480   0.55213854     158.5          158.5          158.5          1.0202146      0.95443848     1.2548397      0.85136568     0.55213854   
      3500   0.55213851     158.5          158.5          158.5          1.0202026      0.95442783     1.2548317      0.85134817     0.55213851   
      3520   0.55213848     158.5          158.5          158.5          1.0201887      0.95440874     1.2548219      0.85133554     0.55213848   
      3540   0.55213846     158.5          158.5          158.5          1.0202061      0.95443666     1.2548272      0.85135438     0.55213846   
      3560   0.55213845     158.5          158.5          158.5          1.020221       0.95444113     1.2548565      0.85136526     0.55213845   
      3580   0.55213843     158.5          158.5          158.5          1.0202065      0.95443239     1.2548329      0.85135424     0.55213843   
      3600   0.55213841     158.5          158.5          158.5          1.0202016      0.95441947     1.2548406      0.8513446      0.55213841   
      3620   0.5521384      158.5          158.5          158.5          1.0202207      0.95444221     1.2548547      0.85136526     0.5521384    
      3640   0.5521384      158.5          158.5          158.5          1.0202249      0.95443953     1.2548687      0.85136642     0.5521384    
      3660   0.55213839     158.5          158.5          158.5          1.0202134      0.95444257     1.2548377      0.85135991     0.55213839   
      3680   0.55213837     158.5          158.5          158.5          1.0201923      0.95441194     1.2548278      0.85133709     0.55213837   
      3700   0.55213835     158.5          158.5          158.5          1.0202167      0.95444287     1.2548429      0.8513644      0.55213835   
      3720   0.55213833     158.5          158.5          158.5          1.0202335      0.95444727     1.2548817      0.8513716      0.55213833   
      3740   0.5521383      158.5          158.5          158.5          1.0202003      0.95442646     1.2548281      0.8513464      0.5521383    
      3760   0.55213828     158.5          158.5          158.5          1.0202108      0.95443446     1.2548413      0.85135661     0.55213828   
      3780   0.55213827     158.5          158.5          158.5          1.0202185      0.95443506     1.2548587      0.85136173     0.55213827   
      3800   0.55213826     158.5          158.5          158.5          1.0202246      0.95444959     1.2548536      0.85137051     0.55213826   
      3820   0.55213824     158.5          158.5          158.5          1.0202031      0.95441923     1.2548458      0.85134425     0.55213824   
      3840   0.55213823     158.5          158.5          158.5          1.0202181      0.95444303     1.2548468      0.85136442     0.55213823   
      3860   0.55213821     158.5          158.5          158.5          1.0202324      0.95445449     1.2548666      0.85137607     0.55213821   
      3880   0.5521382      158.5          158.5          158.5          1.0202123      0.95443377     1.254846       0.85135694     0.5521382    
      3900   0.55213819     158.5          158.5          158.5          1.0202019      0.95442331     1.2548361      0.85134642     0.55213819   
      3920   0.55213817     158.5          158.5          158.5          1.0202103      0.95443255     1.2548423      0.85135607     0.55213817   
      3940   0.55213817     158.5          158.5          158.5          1.0202276      0.95443785     1.2548801      0.85136495     0.55213817   
      3960   0.55213815     158.5          158.5          158.5          1.0202157      0.95443001     1.2548609      0.85135622     0.55213815   
      3980   0.55213814     158.5          158.5          158.5          1.0202016      0.95442799     1.254827       0.85134977     0.55213814   
      4000   0.55213813     158.5          158.5          158.5          1.0202195      0.95444334     1.2548497      0.8513656      0.55213813   
      4020   0.55213812     158.5          158.5          158.5          1.0202223      0.95444807     1.2548484      0.85137024     0.55213812   
      4040   0.5521381      158.5          158.5          158.5          1.0202025      0.95441848     1.2548448      0.85134426     0.5521381    
      4060   0.55213808     158.5          158.5          158.5          1.0202059      0.95441813     1.2548533      0.85134638     0.55213808   
      4080   0.55213806     158.5          158.5          158.5          1.0202383      0.95445982     1.254875       0.85138017     0.55213806   
      4100   0.55213805     158.5          158.5          158.5          1.0202222      0.95443718     1.2548685      0.85136104     0.55213805   
      4120   0.55213803     158.5          158.5          158.5          1.0201985      0.95441879     1.2548334      0.85134339     0.55213803   
      4140   0.55213802     158.5          158.5          158.5          1.0202177      0.95443472     1.2548589      0.85135937     0.55213802   
      4160   0.55213801     158.5          158.5          158.5          1.0202303      0.95444878     1.2548708      0.85137129     0.55213801   
      4180   0.552138       158.5          158.5          158.5          1.0202165      0.95443526     1.2548561      0.85135804     0.552138     
      4200   0.55213798     158.5          158.5          158.5          1.0201957      0.95441525     1.2548326      0.85133931     0.55213798   
      4220   0.55213797     158.5          158.5          158.5          1.0202163      0.95444027     1.2548463      0.85136244     0.55213797   
      4240   0.55213797     158.5          158.5          158.5          1.0202273      0.95445048     1.2548592      0.85137231     0.55213797   
      4260   0.55213796     158.5          158.5          158.5          1.0202139      0.95442546     1.2548636      0.85135257     0.55213796   
      4280   0.55213795     158.5          158.5          158.5          1.0202028      0.95441799     1.2548462      0.8513442      0.55213795   
      4300   0.55213794     158.5          158.5          158.5          1.0202148      0.9544265      1.2548626      0.85135529     0.55213794   
      4320   0.55213792     158.5          158.5          158.5          1.0202266      0.95445053     1.2548562      0.85137309     0.55213792   
      4340   0.5521379      158.5          158.5          158.5          1.0202087      0.95443172     1.2548406      0.85135361     0.5521379    
      4360   0.55213788     158.5          158.5          158.5          1.0202058      0.95441787     1.2548542      0.85134518     0.55213788   
      4380   0.55213787     158.5          158.5          158.5          1.020231       0.95445096     1.2548689      0.85137299     0.55213787   
      4400   0.55213786     158.5          158.5          158.5          1.0202202      0.95444006     1.2548571      0.85136358     0.55213786   
      4420   0.55213785     158.5          158.5          158.5          1.0202036      0.95442908     1.2548315      0.85135031     0.55213785   
      4440   0.55213783     158.5          158.5          158.5          1.0202265      0.95443858     1.2548783      0.85136267     0.55213783   
      4460   0.55213782     158.5          158.5          158.5          1.0202273      0.9544476      1.2548629      0.85137133     0.55213782   
      4480   0.55213781     158.5          158.5          158.5          1.0202162      0.95443686     1.2548517      0.85136016     0.55213781   
      4500   0.5521378      158.5          158.5          158.5          1.0202069      0.95442112     1.2548527      0.85134701     0.5521378    
      4520   0.5521378      158.5          158.5          158.5          1.0202168      0.95443884     1.2548508      0.85136066     0.5521378    
      4540   0.55213779     158.5          158.5          158.5          1.0202293      0.95445129     1.2548634      0.85137324     0.55213779   
      4560   0.55213778     158.5          158.5          158.5          1.0202136      0.95443484     1.2548479      0.85135793     0.55213778   
      4580   0.55213776     158.5          158.5          158.5          1.0202081      0.95443221     1.2548389      0.85135336     0.55213776   
      4600   0.55213776     158.5          158.5          158.5          1.0202149      0.95444266     1.2548378      0.85136426     0.55213776   
      4620   0.55213775     158.5          158.5          158.5          1.0202317      0.95444403     1.2548814      0.85136961     0.55213775   
      4640   0.55213773     158.5          158.5          158.5          1.0202046      0.95442774     1.2548377      0.85134838     0.55213773   
      4660   0.55213771     158.5          158.5          158.5          1.0202128      0.95444217     1.2548349      0.85136127     0.55213771   
      4680   0.5521377      158.5          158.5          158.5          1.0202346      0.95445949     1.2548646      0.85137966     0.5521377    
      4700   0.55213768     158.5          158.5          158.5          1.0202113      0.95443661     1.2548393      0.85135793     0.55213768   
      4720   0.55213767     158.5          158.5          158.5          1.0202015      0.95443275     1.2548204      0.85135132     0.55213767   
      4740   0.55213766     158.5          158.5          158.5          1.0202097      0.95442501     1.2548511      0.85135305     0.55213766   
      4760   0.55213766     158.5          158.5          158.5          1.0202224      0.95444074     1.2548615      0.85136497     0.55213766   
      4780   0.55213765     158.5          158.5          158.5          1.020211       0.95443089     1.254848       0.85135422     0.55213765   
      4800   0.55213763     158.5          158.5          158.5          1.0202039      0.95442167     1.2548438      0.85134613     0.55213763   
      4820   0.55213761     158.5          158.5          158.5          1.020213       0.95443605     1.254845       0.85135791     0.55213761   
      4840   0.5521376      158.5          158.5          158.5          1.0202256      0.95445038     1.2548553      0.85137115     0.5521376    
      4860   0.5521376      158.5          158.5          158.5          1.0202144      0.95443253     1.2548546      0.85135622     0.5521376    
      4880   0.55213759     158.5          158.5          158.5          1.020213       0.95442824     1.2548587      0.85135208     0.55213759   
      4900   0.55213758     158.5          158.5          158.5          1.0202188      0.95443778     1.2548567      0.85136206     0.55213758   
      4920   0.55213757     158.5          158.5          158.5          1.0202313      0.95444835     1.2548725      0.85137295     0.55213757   
      4940   0.55213755     158.5          158.5          158.5          1.0202014      0.95443542     1.2548132      0.85135558     0.55213755   
      4960   0.55213754     158.5          158.5          158.5          1.0201963      0.95441555     1.2548338      0.85133971     0.55213754   
      4980   0.55213752     158.5          158.5          158.5          1.0202242      0.95444412     1.2548608      0.85136772     0.55213752   
      5000   0.55213751     158.5          158.5          158.5          1.0202251      0.95445169     1.2548517      0.85137198     0.55213751   
      5020   0.55213751     158.5          158.5          158.5          1.0202107      0.95443385     1.2548419      0.85135646     0.55213751   
      5040   0.5521375      158.5          158.5          158.5          1.0202128      0.95442976     1.2548544      0.85135426     0.5521375    
      5060   0.55213749     158.5          158.5          158.5          1.0202255      0.95445276     1.2548509      0.8513728      0.55213749   
      5080   0.55213748     158.5          158.5          158.5          1.0202142      0.95443658     1.254847       0.85135912     0.55213748   
      5100   0.55213747     158.5          158.5          158.5          1.0202073      0.95442898     1.254841       0.85135206     0.55213747   
      5120   0.55213747     158.5          158.5          158.5          1.0202176      0.95444106     1.2548483      0.85136333     0.55213747   
      5140   0.55213746     158.5          158.5          158.5          1.0202255      0.95444808     1.2548578      0.85137054     0.55213746   
      5160   0.55213745     158.5          158.5          158.5          1.0202049      0.95442164     1.2548448      0.85134829     0.55213745   
      5180   0.55213744     158.5          158.5          158.5          1.02021        0.95443484     1.2548392      0.85135603     0.55213744   
      5200   0.55213743     158.5          158.5          158.5          1.0202235      0.95444502     1.2548572      0.85136818     0.55213743   
      5220   0.55213742     158.5          158.5          158.5          1.0202197      0.95443893     1.2548573      0.85136301     0.55213742   
      5240   0.55213741     158.5          158.5          158.5          1.0202087      0.95442598     1.2548509      0.8513492      0.55213741   
      5260   0.5521374      158.5          158.5          158.5          1.0202247      0.95444292     1.2548671      0.85136397     0.5521374    
      5280   0.55213738     158.5          158.5          158.5          1.0202263      0.95444606     1.2548632      0.8513698      0.55213738   
      5300   0.55213737     158.5          158.5          158.5          1.0202089      0.95443396     1.2548373      0.85135526     0.55213737   
      5320   0.55213736     158.5          158.5          158.5          1.0202077      0.954431       1.2548393      0.85135278     0.55213736   
      5340   0.55213736     158.5          158.5          158.5          1.020217       0.95443988     1.2548496      0.85136158     0.55213736   
      5360   0.55213735     158.5          158.5          158.5          1.0202226      0.95444633     1.2548537      0.8513679      0.55213735   
      5380   0.55213735     158.5          158.5          158.5          1.0202026      0.95442267     1.2548377      0.85134753     0.55213735   
      5400   0.55213732     158.5          158.5          158.5          1.020196       0.95441552     1.2548318      0.85134066     0.55213732   
      5420   0.5521373      158.5          158.5          158.5          1.0202089      0.95443508     1.2548345      0.85135723     0.5521373    
      5440   0.5521373      158.5          158.5          158.5          1.0202213      0.95444593     1.2548504      0.85136763     0.5521373    
      5460   0.55213729     158.5          158.5          158.5          1.020217       0.95443546     1.254857       0.85135864     0.55213729   
      5480   0.55213729     158.5          158.5          158.5          1.0202114      0.95443414     1.2548444      0.85135558     0.55213729   
      5500   0.55213728     158.5          158.5          158.5          1.0202188      0.95443596     1.2548596      0.85136081     0.55213728   
      5520   0.55213727     158.5          158.5          158.5          1.0202264      0.95444454     1.2548652      0.85136934     0.55213727   
      5540   0.55213725     158.5          158.5          158.5          1.0202069      0.95443435     1.2548309      0.85135554     0.55213725   
      5560   0.55213724     158.5          158.5          158.5          1.0201936      0.95441203     1.2548299      0.85133878     0.55213724   
      5580   0.55213723     158.5          158.5          158.5          1.0202204      0.95443872     1.2548583      0.85136426     0.55213723   
      5600   0.55213722     158.5          158.5          158.5          1.0202144      0.95444364     1.2548338      0.85136585     0.55213722   
      5620   0.55213721     158.5          158.5          158.5          1.0202036      0.95442663     1.2548329      0.85135136     0.55213721   
      5640   0.55213721     158.5          158.5          158.5          1.020206       0.95442952     1.2548353      0.8513533      0.55213721   
      5660   0.5521372      158.5          158.5          158.5          1.0202277      0.95444867     1.2548629      0.85137156     0.5521372    
      5680   0.55213719     158.5          158.5          158.5          1.0202111      0.95443041     1.2548482      0.85135477     0.55213719   
      5700   0.55213718     158.5          158.5          158.5          1.0202125      0.95443202     1.2548503      0.85135522     0.55213718   
      5720   0.55213718     158.5          158.5          158.5          1.0202185      0.95444137     1.2548516      0.85136261     0.55213718   
      5740   0.55213717     158.5          158.5          158.5          1.0202253      0.95445967     1.2548403      0.85137602     0.55213717   
      5760   0.55213717     158.5          158.5          158.5          1.0202119      0.9544376      1.2548396      0.85135838     0.55213717   
      5780   0.55213716     158.5          158.5          158.5          1.0202098      0.95443509     1.2548385      0.85135587     0.55213716   
      5800   0.55213715     158.5          158.5          158.5          1.0202234      0.95444775     1.2548528      0.85136956     0.55213715   
      5820   0.55213715     158.5          158.5          158.5          1.020222       0.95444118     1.2548593      0.85136564     0.55213715   
      5840   0.55213714     158.5          158.5          158.5          1.020206       0.95442477     1.2548443      0.85134886     0.55213714   
      5860   0.55213712     158.5          158.5          158.5          1.0202112      0.95443231     1.2548459      0.8513553      0.55213712   
      5880   0.55213711     158.5          158.5          158.5          1.0202294      0.95445403     1.2548597      0.85137456     0.55213711   
      5900   0.5521371      158.5          158.5          158.5          1.020211       0.95443286     1.2548446      0.85135561     0.5521371    
      5920   0.5521371      158.5          158.5          158.5          1.0202113      0.95443174     1.2548475      0.85135457     0.5521371    
      5940   0.55213709     158.5          158.5          158.5          1.0202155      0.95443845     1.2548478      0.85136034     0.55213709   
      5960   0.55213708     158.5          158.5          158.5          1.0202253      0.95444631     1.2548599      0.85136973     0.55213708   
      5980   0.55213708     158.5          158.5          158.5          1.0202143      0.95443743     1.2548478      0.85135779     0.55213708   
      6000   0.55213706     158.5          158.5          158.5          1.0202022      0.95442003     1.2548415      0.85134491     0.55213706   
      6020   0.55213704     158.5          158.5          158.5          1.020215       0.95443392     1.2548537      0.85135737     0.55213704   
      6040   0.55213704     158.5          158.5          158.5          1.0202258      0.95444854     1.2548588      0.85137021     0.55213704   
      6060   0.55213703     158.5          158.5          158.5          1.0202083      0.95443053     1.2548404      0.85135387     0.55213703   
      6080   0.55213703     158.5          158.5          158.5          1.0202186      0.95443715     1.2548598      0.85135883     0.55213703   
      6100   0.55213702     158.5          158.5          158.5          1.0202195      0.95444777     1.254844       0.85136659     0.55213702   
      6120   0.55213701     158.5          158.5          158.5          1.020225       0.95444509     1.2548618      0.85136802     0.55213701   
      6140   0.552137       158.5          158.5          158.5          1.0202023      0.95442606     1.2548319      0.85134899     0.552137     
      6160   0.55213699     158.5          158.5          158.5          1.0202054      0.95442894     1.2548363      0.85135096     0.55213699   
      6180   0.55213698     158.5          158.5          158.5          1.0202254      0.95444298     1.2548655      0.85136773     0.55213698   
      6200   0.55213697     158.5          158.5          158.5          1.0202239      0.9544419      1.2548633      0.85136636     0.55213697   
      6220   0.55213697     158.5          158.5          158.5          1.0202116      0.95443005     1.2548509      0.85135381     0.55213697   
      6240   0.55213696     158.5          158.5          158.5          1.0202049      0.95441992     1.2548475      0.85134715     0.55213696   
      6260   0.55213695     158.5          158.5          158.5          1.020225       0.95444619     1.2548589      0.8513698      0.55213695   
      6280   0.55213695     158.5          158.5          158.5          1.0202129      0.95443375     1.254848       0.85135683     0.55213695   
      6300   0.55213694     158.5          158.5          158.5          1.0202122      0.95443468     1.2548454      0.85135664     0.55213694   
      6320   0.55213694     158.5          158.5          158.5          1.0202132      0.9544367      1.254844       0.85135898     0.55213694   
      6340   0.55213693     158.5          158.5          158.5          1.0202236      0.95444626     1.2548553      0.85136922     0.55213693   
      6360   0.55213693     158.5          158.5          158.5          1.0202043      0.95442816     1.2548343      0.85135049     0.55213693   
      6380   0.55213692     158.5          158.5          158.5          1.0202084      0.95442739     1.2548459      0.85135199     0.55213692   
      6400   0.55213692     158.5          158.5          158.5          1.0202266      0.95444684     1.254864       0.85136906     0.55213692   
      6420   0.55213691     158.5          158.5          158.5          1.0202233      0.95445073     1.2548486      0.85137047     0.55213691   
      6440   0.5521369      158.5          158.5          158.5          1.0202056      0.95442208     1.2548469      0.85134796     0.5521369    
      6460   0.55213689     158.5          158.5          158.5          1.0202062      0.95442949     1.2548377      0.85135135     0.55213689   
      6480   0.55213688     158.5          158.5          158.5          1.0202274      0.95445177     1.2548581      0.8513724      0.55213688   
      6500   0.55213688     158.5          158.5          158.5          1.0202187      0.95444507     1.2548464      0.85136472     0.55213688   
      6520   0.55213687     158.5          158.5          158.5          1.0202064      0.95442781     1.2548394      0.85135204     0.55213687   
      6540   0.55213686     158.5          158.5          158.5          1.0202175      0.9544406      1.2548501      0.85136189     0.55213686   
      6560   0.55213686     158.5          158.5          158.5          1.0202245      0.95445381     1.254847       0.85137281     0.55213686   
      6580   0.55213685     158.5          158.5          158.5          1.0202169      0.95443583     1.2548569      0.851358       0.55213685   
      6600   0.55213683     158.5          158.5          158.5          1.0202091      0.95444047     1.2548278      0.85135889     0.55213683   
      6620   0.55213682     158.5          158.5          158.5          1.0202135      0.95443462     1.2548486      0.85135723     0.55213682   
      6640   0.55213681     158.5          158.5          158.5          1.0202245      0.95444655     1.254858       0.85136899     0.55213681   
      6660   0.55213681     158.5          158.5          158.5          1.0202107      0.95443324     1.254843       0.85135572     0.55213681   
      6680   0.5521368      158.5          158.5          158.5          1.0202104      0.95443277     1.2548426      0.85135566     0.5521368    
      6700   0.5521368      158.5          158.5          158.5          1.0202187      0.95444233     1.25485        0.85136374     0.5521368    
      6720   0.55213679     158.5          158.5          158.5          1.020221       0.95445198     1.2548399      0.85137123     0.55213679   
      6740   0.55213678     158.5          158.5          158.5          1.0202048      0.95441733     1.2548523      0.85134463     0.55213678   
      6760   0.55213677     158.5          158.5          158.5          1.0202047      0.95442556     1.2548391      0.85134937     0.55213677   
      6780   0.55213677     158.5          158.5          158.5          1.0202259      0.95444825     1.254859       0.85137047     0.55213677   
      6800   0.55213676     158.5          158.5          158.5          1.0202186      0.95444028     1.2548523      0.85136331     0.55213676   
      6820   0.55213676     158.5          158.5          158.5          1.0202127      0.95443624     1.2548449      0.85135704     0.55213676   
      6840   0.55213675     158.5          158.5          158.5          1.0202062      0.95442724     1.254841       0.85135028     0.55213675   
      6860   0.55213674     158.5          158.5          158.5          1.0202254      0.95444805     1.2548576      0.85137074     0.55213674   
      6880   0.55213674     158.5          158.5          158.5          1.0202149      0.95443699     1.254848       0.85135972     0.55213674   
      6900   0.55213674     158.5          158.5          158.5          1.0202096      0.95443196     1.254842       0.85135485     0.55213674   
      6920   0.55213673     158.5          158.5          158.5          1.0202179      0.95444013     1.2548513      0.85136219     0.55213673   
      6940   0.55213673     158.5          158.5          158.5          1.0202236      0.95444321     1.2548602      0.85136745     0.55213673   
      6960   0.55213672     158.5          158.5          158.5          1.0202023      0.95443152     1.2548241      0.85135134     0.55213672   
      6980   0.55213672     158.5          158.5          158.5          1.0202167      0.95444023     1.2548492      0.8513607      0.55213672   
      7000   0.55213671     158.5          158.5          158.5          1.0202225      0.95444836     1.2548504      0.85136885     0.55213671   
      7020   0.55213671     158.5          158.5          158.5          1.020221       0.95444641     1.2548489      0.85136764     0.55213671   
      7040   0.5521367      158.5          158.5          158.5          1.0202065      0.95442774     1.254842       0.85134989     0.5521367    
      7060   0.55213669     158.5          158.5          158.5          1.0202104      0.95443243     1.254844       0.85135487     0.55213669   
      7080   0.55213668     158.5          158.5          158.5          1.0202243      0.95444522     1.2548594      0.85136825     0.55213668   
      7100   0.55213668     158.5          158.5          158.5          1.0202156      0.9544417      1.2548426      0.85136264     0.55213668   
      7120   0.55213667     158.5          158.5          158.5          1.020204       0.95442538     1.2548373      0.85134922     0.55213667   
      7140   0.55213667     158.5          158.5          158.5          1.0202151      0.95443466     1.2548526      0.85135794     0.55213667   
      7160   0.55213666     158.5          158.5          158.5          1.0202245      0.95445051     1.2548527      0.85137034     0.55213666   
      7180   0.55213666     158.5          158.5          158.5          1.0202138      0.95443578     1.2548479      0.85135761     0.55213666   
      7200   0.55213664     158.5          158.5          158.5          1.0202151      0.95442766     1.2548645      0.85135316     0.55213664   
      7220   0.55213663     158.5          158.5          158.5          1.0202139      0.9544379      1.2548453      0.85135845     0.55213663   
      7240   0.55213662     158.5          158.5          158.5          1.0202232      0.95444338     1.2548597      0.8513665      0.55213662   
      7260   0.55213662     158.5          158.5          158.5          1.0202139      0.95443712     1.2548456      0.85135899     0.55213662   
      7280   0.55213661     158.5          158.5          158.5          1.020207       0.95442684     1.2548433      0.8513509      0.55213661   
      7300   0.55213661     158.5          158.5          158.5          1.0202149      0.95443745     1.2548467      0.85136058     0.55213661   
      7320   0.5521366      158.5          158.5          158.5          1.0202236      0.95445        1.2548508      0.85137011     0.5521366    
      7340   0.55213659     158.5          158.5          158.5          1.0202108      0.9544272      1.2548533      0.85135197     0.55213659   
      7360   0.55213659     158.5          158.5          158.5          1.0202038      0.95442537     1.2548372      0.85134884     0.55213659   
      7380   0.55213658     158.5          158.5          158.5          1.0202222      0.95444721     1.2548511      0.85136837     0.55213658   
      7400   0.55213657     158.5          158.5          158.5          1.0202189      0.95444638     1.2548441      0.85136627     0.55213657   
      7420   0.55213657     158.5          158.5          158.5          1.0202054      0.95443015     1.2548327      0.85135347     0.55213657   
      7440   0.55213657     158.5          158.5          158.5          1.0202061      0.95443075     1.2548347      0.85135274     0.55213657   
      7460   0.55213656     158.5          158.5          158.5          1.0202272      0.95444899     1.2548614      0.85137111     0.55213656   
      7480   0.55213656     158.5          158.5          158.5          1.0202149      0.95443694     1.2548483      0.85135933     0.55213656   
      7500   0.55213655     158.5          158.5          158.5          1.0202106      0.95443261     1.2548441      0.85135503     0.55213655   
      7520   0.55213655     158.5          158.5          158.5          1.0202198      0.95444248     1.2548526      0.85136433     0.55213655   
      7540   0.55213655     158.5          158.5          158.5          1.0202252      0.95444883     1.2548561      0.85137051     0.55213655   
      7560   0.55213654     158.5          158.5          158.5          1.0202049      0.95442801     1.2548365      0.85135028     0.55213654   
      7580   0.55213654     158.5          158.5          158.5          1.0202099      0.95443639     1.2548358      0.85135765     0.55213654   
      7600   0.55213653     158.5          158.5          158.5          1.0202208      0.95444533     1.2548502      0.85136684     0.55213653   
      7620   0.55213653     158.5          158.5          158.5          1.0202238      0.95444361     1.2548614      0.85136641     0.55213653   
      7640   0.55213652     158.5          158.5          158.5          1.0202018      0.95441989     1.2548411      0.85134448     0.55213652   
      7660   0.55213651     158.5          158.5          158.5          1.0202161      0.95443868     1.254849       0.85136053     0.55213651   
      7680   0.55213651     158.5          158.5          158.5          1.0202223      0.95444571     1.254854       0.85136719     0.55213651   
      7700   0.5521365      158.5          158.5          158.5          1.0202149      0.95443551     1.2548504      0.85135884     0.5521365    
      7720   0.5521365      158.5          158.5          158.5          1.0202091      0.95443183     1.2548419      0.85135343     0.5521365    
      7740   0.55213649     158.5          158.5          158.5          1.0202218      0.95444457     1.2548559      0.85136505     0.55213649   
      7760   0.55213649     158.5          158.5          158.5          1.0202144      0.95443694     1.2548445      0.85136167     0.55213649   
      7780   0.55213648     158.5          158.5          158.5          1.0202045      0.95441954     1.2548466      0.85134723     0.55213648   
      7800   0.55213645     158.5          158.5          158.5          1.0202282      0.95444986     1.2548676      0.85136699     0.55213645   
      7820   0.55213642     158.5          158.5          158.5          1.0202095      0.95443108     1.2548431      0.85135433     0.55213642   
      7840   0.55213642     158.5          158.5          158.5          1.0202237      0.95444292     1.2548625      0.85136559     0.55213642   
      7860   0.55213641     158.5          158.5          158.5          1.0202156      0.95443704     1.2548499      0.85135992     0.55213641   
      7880   0.55213641     158.5          158.5          158.5          1.0202088      0.95443321     1.2548376      0.85135561     0.55213641   
      7900   0.5521364      158.5          158.5          158.5          1.020218       0.95444056     1.2548504      0.85136287     0.5521364    
      7920   0.5521364      158.5          158.5          158.5          1.0202161      0.95444591     1.2548369      0.85136533     0.5521364    
      7940   0.55213639     158.5          158.5          158.5          1.0202145      0.95443195     1.2548546      0.85135692     0.55213639   
      7960   0.55213639     158.5          158.5          158.5          1.0202125      0.9544292      1.2548548      0.85135353     0.55213639   
      7980   0.55213638     158.5          158.5          158.5          1.0202229      0.95444509     1.2548562      0.85136749     0.55213638   
      8000   0.55213638     158.5          158.5          158.5          1.0202126      0.95443465     1.2548458      0.85135739     0.55213638   
      8020   0.55213637     158.5          158.5          158.5          1.0202124      0.9544343      1.254846       0.85135693     0.55213637   
      8040   0.55213637     158.5          158.5          158.5          1.0202187      0.95443719     1.2548588      0.85135999     0.55213637   
      8060   0.55213637     158.5          158.5          158.5          1.0202242      0.95444468     1.2548606      0.85136741     0.55213637   
      8080   0.55213636     158.5          158.5          158.5          1.020213       0.95443365     1.2548482      0.85135719     0.55213636   
      8100   0.55213636     158.5          158.5          158.5          1.02021        0.95443324     1.2548411      0.85135561     0.55213636   
      8120   0.55213636     158.5          158.5          158.5          1.02022        0.95444077     1.2548553      0.85136382     0.55213636   
      8140   0.55213635     158.5          158.5          158.5          1.0202213      0.95444102     1.2548582      0.85136471     0.55213635   
      8160   0.55213635     158.5          158.5          158.5          1.0202089      0.95442957     1.254844       0.85135298     0.55213635   
      8180   0.55213634     158.5          158.5          158.5          1.020213       0.95443961     1.2548396      0.85135986     0.55213634   
      8200   0.55213634     158.5          158.5          158.5          1.0202174      0.95443875     1.2548515      0.85136191     0.55213634   
      8220   0.55213634     158.5          158.5          158.5          1.0202182      0.9544366      1.2548576      0.85136051     0.55213634   
      8240   0.55213633     158.5          158.5          158.5          1.0202051      0.95442954     1.2548335      0.85135235     0.55213633   
      8260   0.55213633     158.5          158.5          158.5          1.0202193      0.95444744     1.2548434      0.85136708     0.55213633   
      8280   0.55213632     158.5          158.5          158.5          1.0202184      0.95443692     1.2548565      0.85136179     0.55213632   
      8300   0.55213632     158.5          158.5          158.5          1.0202103      0.95443014     1.2548474      0.85135344     0.55213632   
      8320   0.55213631     158.5          158.5          158.5          1.0202091      0.95443233     1.2548401      0.85135474     0.55213631   
      8340   0.55213631     158.5          158.5          158.5          1.0202204      0.95444345     1.2548521      0.85136563     0.55213631   
      8360   0.55213631     158.5          158.5          158.5          1.0202222      0.95444174     1.25486        0.85136488     0.55213631   
      8380   0.5521363      158.5          158.5          158.5          1.0202049      0.95442816     1.2548368      0.85134978     0.5521363    
      8400   0.55213627     158.5          158.5          158.5          1.0202236      0.95445197     1.2548457      0.85137319     0.55213627   
      8420   0.55213625     158.5          158.5          158.5          1.0202169      0.95444208     1.2548466      0.85136211     0.55213625   
      8440   0.55213625     158.5          158.5          158.5          1.0202164      0.95443919     1.2548494      0.85136059     0.55213625   
      8460   0.55213624     158.5          158.5          158.5          1.020216       0.95444017     1.2548452      0.85136261     0.55213624   
      8480   0.55213624     158.5          158.5          158.5          1.0202162      0.95443785     1.2548499      0.85136092     0.55213624   
      8500   0.55213624     158.5          158.5          158.5          1.0202109      0.95443598     1.2548398      0.851357       0.55213624   
      8520   0.55213623     158.5          158.5          158.5          1.0202116      0.95443675     1.2548396      0.85135849     0.55213623   
      8540   0.55213623     158.5          158.5          158.5          1.0202196      0.95444596     1.2548461      0.85136691     0.55213623   
      8560   0.55213622     158.5          158.5          158.5          1.0202135      0.95443419     1.2548492      0.85135703     0.55213622   
      8580   0.55213622     158.5          158.5          158.5          1.0202137      0.95443785     1.254844       0.85135939     0.55213622   
      8600   0.55213621     158.5          158.5          158.5          1.0202168      0.95443985     1.254848       0.8513625      0.55213621   
      8620   0.55213621     158.5          158.5          158.5          1.0202111      0.95443884     1.2548344      0.85136014     0.55213621   
      8640   0.5521362      158.5          158.5          158.5          1.0202079      0.9544277      1.2548447      0.8513513      0.5521362    
      8660   0.5521362      158.5          158.5          158.5          1.0202184      0.95444095     1.2548511      0.85136311     0.5521362    
      8680   0.5521362      158.5          158.5          158.5          1.0202231      0.95444631     1.2548547      0.85136835     0.5521362    
      8700   0.5521362      158.5          158.5          158.5          1.0202112      0.9544348      1.2548423      0.85135669     0.5521362    
      8720   0.55213619     158.5          158.5          158.5          1.0202176      0.95443803     1.2548533      0.85136152     0.55213619   
      8740   0.55213619     158.5          158.5          158.5          1.0202192      0.95444241     1.2548507      0.85136459     0.55213619   
      8760   0.55213619     158.5          158.5          158.5          1.0202085      0.95442856     1.2548442      0.85135277     0.55213619   
      8780   0.55213618     158.5          158.5          158.5          1.020211       0.95443108     1.2548474      0.85135452     0.55213618   
      8800   0.55213618     158.5          158.5          158.5          1.0202181      0.95444009     1.2548511      0.85136306     0.55213618   
      8820   0.55213618     158.5          158.5          158.5          1.0202198      0.95444472     1.254849       0.85136562     0.55213618   
      8840   0.55213617     158.5          158.5          158.5          1.0202075      0.95443165     1.2548371      0.85135381     0.55213617   
      8860   0.55213617     158.5          158.5          158.5          1.0202137      0.9544372      1.254845       0.85135895     0.55213617   
      8880   0.55213616     158.5          158.5          158.5          1.0202206      0.95444396     1.2548522      0.85136551     0.55213616   
      8900   0.55213616     158.5          158.5          158.5          1.020214       0.95443632     1.254847       0.85135856     0.55213616   
      8920   0.55213616     158.5          158.5          158.5          1.0202117      0.95443331     1.2548461      0.85135573     0.55213616   
      8940   0.55213615     158.5          158.5          158.5          1.020221       0.95444709     1.2548487      0.85136735     0.55213615   
      8960   0.55213615     158.5          158.5          158.5          1.0202143      0.95443874     1.2548428      0.85136131     0.55213615   
      8980   0.55213614     158.5          158.5          158.5          1.020208       0.95443227     1.2548382      0.85135352     0.55213614   
      9000   0.55213612     158.5          158.5          158.5          1.0202148      0.95444231     1.2548379      0.85136435     0.55213612   
      9020   0.55213611     158.5          158.5          158.5          1.0202098      0.9544297      1.2548444      0.85135528     0.55213611   
      9040   0.5521361      158.5          158.5          158.5          1.0202106      0.95443537     1.2548392      0.85135723     0.5521361    
      9060   0.5521361      158.5          158.5          158.5          1.020214       0.95444356     1.254835       0.85136361     0.5521361    
      9080   0.5521361      158.5          158.5          158.5          1.0202175      0.95444362     1.2548445      0.85136428     0.5521361    
      9100   0.55213609     158.5          158.5          158.5          1.0202119      0.95443644     1.2548413      0.85135802     0.55213609   
      9120   0.55213609     158.5          158.5          158.5          1.0202117      0.9544349      1.2548428      0.85135737     0.55213609   
      9140   0.55213609     158.5          158.5          158.5          1.0202206      0.95444645     1.2548481      0.85136726     0.55213609   
      9160   0.55213608     158.5          158.5          158.5          1.0202184      0.95443908     1.2548549      0.85136126     0.55213608   
      9180   0.55213608     158.5          158.5          158.5          1.0202095      0.95443471     1.2548376      0.85135606     0.55213608   
      9200   0.55213608     158.5          158.5          158.5          1.0202196      0.9544412      1.2548539      0.85136351     0.55213608   
      9220   0.55213607     158.5          158.5          158.5          1.0202196      0.95444246     1.2548522      0.85136398     0.55213607   
      9240   0.55213607     158.5          158.5          158.5          1.0202091      0.95443299     1.2548395      0.85135478     0.55213607   
      9260   0.55213607     158.5          158.5          158.5          1.020215       0.95444121     1.2548416      0.85136212     0.55213607   
      9280   0.55213606     158.5          158.5          158.5          1.0202231      0.9544491      1.2548505      0.8513697      0.55213606   
      9300   0.55213606     158.5          158.5          158.5          1.0202141      0.95443723     1.2548458      0.85135937     0.55213606   
      9320   0.55213606     158.5          158.5          158.5          1.0202161      0.95443892     1.2548482      0.85136117     0.55213606   
      9340   0.55213606     158.5          158.5          158.5          1.0202175      0.95443994     1.2548503      0.85136221     0.55213606   
      9360   0.55213605     158.5          158.5          158.5          1.0202142      0.95443634     1.2548476      0.85135865     0.55213605   
      9380   0.55213605     158.5          158.5          158.5          1.0202163      0.95443412     1.2548569      0.85135801     0.55213605   
      9400   0.55213605     158.5          158.5          158.5          1.0202181      0.95443957     1.2548529      0.8513619      0.55213605   
      9420   0.55213604     158.5          158.5          158.5          1.0202189      0.95444166     1.2548517      0.85136343     0.55213604   
      9440   0.55213604     158.5          158.5          158.5          1.0202144      0.95443735     1.2548467      0.85135921     0.55213604   
      9460   0.55213604     158.5          158.5          158.5          1.0202124      0.95443334     1.2548469      0.85135711     0.55213604   
      9480   0.55213603     158.5          158.5          158.5          1.0202181      0.95443955     1.2548523      0.85136248     0.55213603   
      9500   0.55213603     158.5          158.5          158.5          1.0202184      0.95443561     1.2548603      0.85135914     0.55213603   
      9520   0.55213603     158.5          158.5          158.5          1.0202091      0.95443002     1.2548436      0.85135365     0.55213603   
      9540   0.55213602     158.5          158.5          158.5          1.0202184      0.95443148     1.2548656      0.85135805     0.55213602   
      9560   0.55213602     158.5          158.5          158.5          1.020216       0.95443908     1.2548476      0.85136131     0.55213602   
      9580   0.55213602     158.5          158.5          158.5          1.0202077      0.95442918     1.2548418      0.85135222     0.55213602   
      9600   0.55213599     158.5          158.5          158.5          1.0202082      0.95443476     1.2548325      0.8513574      0.55213599   
      9620   0.55213597     158.5          158.5          158.5          1.0202125      0.95442981     1.2548519      0.85135579     0.55213597   
      9640   0.55213597     158.5          158.5          158.5          1.0202112      0.9544281      1.2548515      0.85135395     0.55213597   
      9660   0.55213596     158.5          158.5          158.5          1.0202179      0.95443961     1.2548523      0.85136175     0.55213596   
      9680   0.55213596     158.5          158.5          158.5          1.0202166      0.95443824     1.2548505      0.85136094     0.55213596   
      9700   0.55213596     158.5          158.5          158.5          1.0202132      0.95443315     1.2548498      0.85135672     0.55213596   
      9720   0.55213596     158.5          158.5          158.5          1.0202128      0.95443881     1.2548403      0.85135916     0.55213596   
      9740   0.55213595     158.5          158.5          158.5          1.020214       0.95443938     1.2548413      0.85136132     0.55213595   
      9760   0.55213595     158.5          158.5          158.5          1.0202184      0.95444345     1.2548476      0.85136407     0.55213595   
      9780   0.55213595     158.5          158.5          158.5          1.0202113      0.95443178     1.2548467      0.85135551     0.55213595   
      9800   0.55213594     158.5          158.5          158.5          1.0202162      0.95443796     1.2548498      0.85136085     0.55213594   
      9820   0.55213594     158.5          158.5          158.5          1.0202155      0.95443464     1.2548531      0.85135879     0.55213594   
      9840   0.55213593     158.5          158.5          158.5          1.0202139      0.95443541     1.2548482      0.85135814     0.55213593   
      9860   0.55213593     158.5          158.5          158.5          1.0202138      0.95443869     1.254843       0.85135989     0.55213593   
      9880   0.55213593     158.5          158.5          158.5          1.0202185      0.95444456     1.2548457      0.8513651      0.55213593   
      9900   0.55213593     158.5          158.5          158.5          1.0202161      0.95443943     1.2548476      0.85136134     0.55213593   
      9920   0.55213593     158.5          158.5          158.5          1.0202143      0.95443653     1.2548473      0.85135905     0.55213593   
      9940   0.55213592     158.5          158.5          158.5          1.0202137      0.95443589     1.2548467      0.85135839     0.55213592   
      9960   0.55213592     158.5          158.5          158.5          1.0202186      0.95444103     1.2548517      0.85136311     0.55213592   
      9980   0.55213592     158.5          158.5          158.5          1.0202183      0.95444214     1.2548495      0.85136319     0.55213592   
     10000   0.55213592     158.5          158.5          158.5          1.0202135      0.95443722     1.2548447      0.85135852     0.55213592   
     10020   0.55213591     158.5          158.5          158.5          1.0202143      0.95444007     1.2548422      0.85136073     0.55213591   
     10040   0.55213591     158.5          158.5          158.5          1.0202207      0.95444776     1.2548466      0.8513677      0.55213591   
     10060   0.55213591     158.5          158.5          158.5          1.0202176      0.95443932     1.2548516      0.85136176     0.55213591   
     10080   0.5521359      158.5          158.5          158.5          1.0202115      0.9544319      1.2548477      0.85135501     0.5521359    
     10100   0.5521359      158.5          158.5          158.5          1.0202172      0.95443898     1.2548513      0.85136115     0.5521359    
     10120   0.5521359      158.5          158.5          158.5          1.0202191      0.95443502     1.254862       0.85136022     0.5521359    
     10140   0.5521359      158.5          158.5          158.5          1.0202125      0.95443323     1.2548476      0.85135678     0.5521359    
     10160   0.55213589     158.5          158.5          158.5          1.020212       0.95443733     1.2548403      0.85135855     0.55213589   
     10180   0.55213589     158.5          158.5          158.5          1.0202248      0.95445572     1.2548456      0.85137309     0.55213589   
     10200   0.55213587     158.5          158.5          158.5          1.020225       0.95444288     1.2548675      0.85136461     0.55213587   
[...]
     30800   0.55213489     158.5          158.5          158.5          1.0202147      0.95443729     1.2548472      0.85135966     0.55213489   
     30820   0.55213489     158.5          158.5          158.5          1.0202149      0.95443735     1.2548476      0.85135972     0.55213489   
     30840   0.55213489     158.5          158.5          158.5          1.0202149      0.95443721     1.2548479      0.85135968     0.55213489   
     30860   0.55213489     158.5          158.5          158.5          1.0202147      0.95443712     1.2548475      0.85135959     0.55213489   
     30880   0.55213489     158.5          158.5          158.5          1.0202148      0.95443713     1.2548477      0.85135961     0.55213489   
     30900   0.55213489     158.5          158.5          158.5          1.0202149      0.9544372      1.2548478      0.85135968     0.55213489   
     30920   0.55213489     158.5          158.5          158.5          1.0202149      0.95443723     1.2548477      0.85135968     0.55213489   
     30940   0.55213489     158.5          158.5          158.5          1.0202148      0.95443718     1.2548477      0.85135964     0.55213489   
     30960   0.55213489     158.5          158.5          158.5          1.0202149      0.95443722     1.2548478      0.8513597      0.55213489   
     30980   0.55213489     158.5          158.5          158.5          1.0202148      0.9544372      1.2548477      0.85135966     0.55213489   
     31000   0.55213489     158.5          158.5          158.5          1.0202147      0.95443707     1.2548475      0.85135952     0.55213489   
     31020   0.55213489     158.5          158.5          158.5          1.020215       0.9544373      1.2548478      0.85135975     0.55213489   
     31040   0.55213489     158.5          158.5          158.5          1.0202149      0.95443721     1.2548479      0.85135969     0.55213489   
     31060   0.55213489     158.5          158.5          158.5          1.0202149      0.95443722     1.2548478      0.85135968     0.55213489   
     31080   0.55213489     158.5          158.5          158.5          1.0202149      0.95443724     1.2548478      0.8513597      0.55213489   
     31100   0.55213489     158.5          158.5          158.5          1.0202148      0.95443715     1.2548477      0.85135962     0.55213489   
     31120   0.55213489     158.5          158.5          158.5          1.0202148      0.95443712     1.2548476      0.85135958     0.55213489   
     31140   0.55213489     158.5          158.5          158.5          1.0202147      0.95443708     1.2548476      0.85135959     0.55213489   
     31160   0.55213489     158.5          158.5          158.5          1.0202149      0.95443725     1.2548477      0.8513597      0.55213489   
     31180   0.55213489     158.5          158.5          158.5          1.0202149      0.95443733     1.2548477      0.8513597      0.55213489   
     31200   0.55213489     158.5          158.5          158.5          1.0202149      0.95443698     1.2548481      0.85135955     0.55213489   
     31220   0.55213489     158.5          158.5          158.5          1.0202147      0.95443712     1.2548474      0.85135957     0.55213489   
     31240   0.55213489     158.5          158.5          158.5          1.0202149      0.9544374      1.2548475      0.85135977     0.55213489   
     31260   0.55213489     158.5          158.5          158.5          1.0202151      0.9544373      1.2548481      0.85135978     0.55213489   
     31280   0.55213489     158.5          158.5          158.5          1.0202148      0.95443699     1.2548478      0.85135952     0.55213489   
     31300   0.55213489     158.5          158.5          158.5          1.0202149      0.95443739     1.2548477      0.85135974     0.55213489   
     31320   0.55213489     158.5          158.5          158.5          1.020215       0.95443744     1.2548477      0.85135983     0.55213489   
     31340   0.55213489     158.5          158.5          158.5          1.0202149      0.95443726     1.2548478      0.85135971     0.55213489   
     31360   0.55213489     158.5          158.5          158.5          1.0202148      0.95443733     1.2548474      0.85135972     0.55213489   
     31380   0.55213489     158.5          158.5          158.5          1.0202149      0.95443731     1.2548477      0.85135974     0.55213489   
     31400   0.55213489     158.5          158.5          158.5          1.0202149      0.9544374      1.2548476      0.85135975     0.55213489   
     31420   0.55213489     158.5          158.5          158.5          1.0202148      0.95443703     1.2548477      0.85135954     0.55213489   
     31440   0.55213489     158.5          158.5          158.5          1.0202147      0.95443703     1.2548475      0.85135955     0.55213489   
     31460   0.55213489     158.5          158.5          158.5          1.0202148      0.95443715     1.2548478      0.85135962     0.55213489   
     31480   0.55213489     158.5          158.5          158.5          1.0202149      0.95443725     1.2548478      0.85135969     0.55213489   
     31500   0.55213489     158.5          158.5          158.5          1.0202149      0.95443731     1.2548477      0.85135974     0.55213489   
     31520   0.55213489     158.5          158.5          158.5          1.0202148      0.95443726     1.2548476      0.85135968     0.55213489   
     31540   0.55213489     158.5          158.5          158.5          1.0202149      0.95443722     1.2548477      0.85135966     0.55213489   
     31560   0.55213489     158.5          158.5          158.5          1.0202148      0.95443719     1.2548476      0.85135965     0.55213489   
     31580   0.55213489     158.5          158.5          158.5          1.0202148      0.95443712     1.2548476      0.85135958     0.55213489   
     31600   0.55213489     158.5          158.5          158.5          1.0202149      0.95443709     1.2548479      0.8513596      0.55213489   
     31620   0.55213489     158.5          158.5          158.5          1.0202149      0.95443728     1.2548477      0.85135974     0.55213489   
     31640   0.55213489     158.5          158.5          158.5          1.0202147      0.95443717     1.2548474      0.85135961     0.55213489   
     31660   0.55213489     158.5          158.5          158.5          1.0202149      0.95443717     1.2548478      0.85135965     0.55213489   
     31680   0.55213489     158.5          158.5          158.5          1.0202149      0.95443733     1.2548476      0.85135974     0.55213489   
     31700   0.55213489     158.5          158.5          158.5          1.0202148      0.95443727     1.2548476      0.85135966     0.55213489   
     31720   0.55213489     158.5          158.5          158.5          1.020215       0.95443747     1.2548477      0.85135983     0.55213489   
     31740   0.55213489     158.5          158.5          158.5          1.020215       0.95443729     1.254848       0.85135977     0.55213489   
     31760   0.55213489     158.5          158.5          158.5          1.0202149      0.95443701     1.254848       0.85135956     0.55213489   
     31780   0.55213489     158.5          158.5          158.5          1.0202148      0.95443719     1.2548476      0.85135963     0.55213489   
     31800   0.55213489     158.5          158.5          158.5          1.020215       0.95443724     1.254848       0.8513597      0.55213489   
     31820   0.55213489     158.5          158.5          158.5          1.0202148      0.95443713     1.2548478      0.85135961     0.55213489   
     31840   0.55213489     158.5          158.5          158.5          1.0202149      0.95443729     1.2548477      0.85135972     0.55213489   
     31860   0.55213489     158.5          158.5          158.5          1.020215       0.9544374      1.2548477      0.85135979     0.55213489   
     31880   0.55213489     158.5          158.5          158.5          1.0202149      0.95443728     1.2548478      0.85135972     0.55213489   
     31900   0.55213489     158.5          158.5          158.5          1.0202149      0.9544373      1.2548477      0.8513597      0.55213489   
     31920   0.55213489     158.5          158.5          158.5          1.0202149      0.95443724     1.2548477      0.85135971     0.55213489   
     31940   0.55213489     158.5          158.5          158.5          1.020215       0.95443736     1.2548477      0.85135977     0.55213489   
     31960   0.55213489     158.5          158.5          158.5          1.0202149      0.95443721     1.2548477      0.85135967     0.55213489   
     31980   0.55213489     158.5          158.5          158.5          1.020215       0.95443726     1.2548479      0.85135974     0.55213489   
     32000   0.55213489     158.5          158.5          158.5          1.0202148      0.95443713     1.2548476      0.85135959     0.55213489   
     32020   0.55213489     158.5          158.5          158.5          1.0202148      0.95443721     1.2548476      0.85135965     0.55213489   
     32040   0.55213489     158.5          158.5          158.5          1.0202149      0.95443732     1.2548476      0.85135973     0.55213489   
     32060   0.55213489     158.5          158.5          158.5          1.0202148      0.95443724     1.2548476      0.85135968     0.55213489   
     32080   0.55213489     158.5          158.5          158.5          1.0202148      0.95443713     1.2548477      0.85135961     0.55213489   
     32100   0.55213489     158.5          158.5          158.5          1.0202148      0.95443723     1.2548475      0.85135968     0.55213489   
     32120   0.55213489     158.5          158.5          158.5          1.0202148      0.95443726     1.2548476      0.85135969     0.55213489   
     32140   0.55213489     158.5          158.5          158.5          1.0202148      0.95443719     1.2548476      0.85135963     0.55213489   
     32160   0.55213489     158.5          158.5          158.5          1.0202149      0.95443724     1.2548477      0.85135967     0.55213489   
     32180   0.55213489     158.5          158.5          158.5          1.0202148      0.95443713     1.2548476      0.85135958     0.55213489   
     32200   0.55213489     158.5          158.5          158.5          1.0202149      0.95443724     1.2548479      0.85135969     0.55213489   
     32220   0.55213489     158.5          158.5          158.5          1.0202149      0.95443731     1.2548475      0.85135972     0.55213489   
     32240   0.55213489     158.5          158.5          158.5          1.0202149      0.95443733     1.2548477      0.85135974     0.55213489   
     32260   0.55213489     158.5          158.5          158.5          1.0202149      0.95443727     1.2548477      0.85135971     0.55213489   
     32280   0.55213489     158.5          158.5          158.5          1.0202149      0.95443733     1.2548478      0.85135975     0.55213489   
     32300   0.55213489     158.5          158.5          158.5          1.0202149      0.95443753     1.2548474      0.85135984     0.55213489   
     32320   0.55213489     158.5          158.5          158.5          1.0202148      0.9544372      1.2548476      0.85135964     0.55213489   
     32340   0.55213489     158.5          158.5          158.5          1.0202149      0.95443732     1.2548476      0.85135974     0.55213489   
     32360   0.55213489     158.5          158.5          158.5          1.0202148      0.95443716     1.2548475      0.85135964     0.55213489   
     32380   0.55213489     158.5          158.5          158.5          1.0202148      0.95443745     1.2548473      0.85135978     0.55213489   
     32400   0.55213489     158.5          158.5          158.5          1.0202146      0.95443715     1.2548472      0.85135959     0.55213489   
     32420   0.55213489     158.5          158.5          158.5          1.0202148      0.9544371      1.2548478      0.8513596      0.55213489   
     32440   0.55213489     158.5          158.5          158.5          1.0202149      0.95443723     1.2548478      0.85135969     0.55213489   
     32460   0.55213489     158.5          158.5          158.5          1.020215       0.95443717     1.254848       0.85135967     0.55213489   
     32480   0.55213489     158.5          158.5          158.5          1.0202147      0.95443702     1.2548476      0.85135955     0.55213489   
     32500   0.55213489     158.5          158.5          158.5          1.0202147      0.95443707     1.2548476      0.85135956     0.55213489   
     32520   0.55213489     158.5          158.5          158.5          1.0202149      0.95443737     1.2548475      0.85135976     0.55213489   
     32540   0.55213489     158.5          158.5          158.5          1.0202149      0.95443722     1.2548479      0.85135971     0.55213489   
     32560   0.55213489     158.5          158.5          158.5          1.0202149      0.95443716     1.2548479      0.85135965     0.55213489   
     32580   0.55213489     158.5          158.5          158.5          1.020215       0.95443741     1.2548477      0.85135979     0.55213489   
     32600   0.55213489     158.5          158.5          158.5          1.0202149      0.95443723     1.2548477      0.85135968     0.55213489   
     32620   0.55213489     158.5          158.5          158.5          1.0202149      0.95443708     1.2548479      0.85135958     0.55213489   
     32640   0.55213489     158.5          158.5          158.5          1.0202148      0.95443716     1.2548476      0.8513596      0.55213489   
     32660   0.55213489     158.5          158.5          158.5          1.0202148      0.95443704     1.2548477      0.85135954     0.55213489   
     32680   0.55213489     158.5          158.5          158.5          1.0202149      0.9544371      1.2548479      0.85135959     0.55213489   
     32700   0.55213489     158.5          158.5          158.5          1.0202149      0.9544372      1.2548477      0.85135967     0.55213489   
     32720   0.55213489     158.5          158.5          158.5          1.0202147      0.95443712     1.2548475      0.85135959     0.55213489   
     32740   0.55213489     158.5          158.5          158.5          1.0202148      0.95443722     1.2548476      0.85135965     0.55213489   
     32760   0.55213489     158.5          158.5          158.5          1.0202149      0.95443723     1.2548477      0.85135967     0.55213489   
     32780   0.55213489     158.5          158.5          158.5          1.0202148      0.95443716     1.2548476      0.85135961     0.55213489   
     32800   0.55213489     158.5          158.5          158.5          1.0202149      0.95443726     1.2548477      0.85135969     0.55213489   
     32820   0.55213489     158.5          158.5          158.5          1.0202149      0.95443727     1.2548476      0.85135969     0.55213489   
     32840   0.55213489     158.5          158.5          158.5          1.0202149      0.95443729     1.2548477      0.85135972     0.55213489   
     32860   0.55213489     158.5          158.5          158.5          1.0202149      0.95443727     1.2548478      0.85135973     0.55213489   
     32880   0.55213489     158.5          158.5          158.5          1.0202149      0.95443726     1.2548477      0.8513597      0.55213489   
     32900   0.55213489     158.5          158.5          158.5          1.0202148      0.9544372      1.2548476      0.85135964     0.55213489   
     32920   0.55213489     158.5          158.5          158.5          1.020215       0.95443748     1.2548476      0.85135983     0.55213489   
     32940   0.55213489     158.5          158.5          158.5          1.0202149      0.9544373      1.2548476      0.85135972     0.55213489   
     32960   0.55213489     158.5          158.5          158.5          1.0202148      0.9544373      1.2548474      0.85135971     0.55213489   
     32980   0.55213489     158.5          158.5          158.5          1.0202148      0.95443711     1.2548477      0.85135958     0.55213489   
     33000   0.55213489     158.5          158.5          158.5          1.0202148      0.95443707     1.2548477      0.85135956     0.55213489   
     33020   0.55213489     158.5          158.5          158.5          1.0202149      0.9544372      1.2548477      0.85135965     0.55213489   
     33040   0.55213489     158.5          158.5          158.5          1.0202149      0.95443724     1.2548477      0.8513597      0.55213489   
     33060   0.55213489     158.5          158.5          158.5          1.0202148      0.95443704     1.2548477      0.85135955     0.55213489   
     33080   0.55213489     158.5          158.5          158.5          1.0202149      0.95443719     1.2548477      0.85135967     0.55213489   
     33100   0.55213489     158.5          158.5          158.5          1.0202148      0.95443715     1.2548476      0.85135962     0.55213489   
     33120   0.55213489     158.5          158.5          158.5          1.0202149      0.95443729     1.2548477      0.85135972     0.55213489   
     33140   0.55213489     158.5          158.5          158.5          1.0202149      0.95443726     1.2548477      0.85135971     0.55213489   
     33158   0.55213489     158.5          158.5          158.5          1.0202149      0.95443731     1.2548477      0.85135973     0.55213489   
Loop time of 7.58309 on 1 procs for 33158 steps with 100 atoms

45.9% CPU use with 1 MPI tasks x no OpenMP threads

Minimization stats:
  Stopping criterion = energy tolerance
  Energy initial, next-to-last, final = 
      1395.73212946771  0.552134887261095  0.552134887261095
  Force two-norm initial, final = 176.18437 1.0426002e-05
  Force max component initial, final = 39.56917 2.368362e-06
  Final line search alpha, max atom move = 1 2.368362e-06
  Iterations, force evaluations = 33158 70243

MPI task timing breakdown:
Section |  min time  |  avg time  |  max time  |%varavg| %total
---------------------------------------------------------------
Pair    | 3.0709     | 3.0709     | 3.0709     |   0.0 | 40.50
Bond    | 3.2644     | 3.2644     | 3.2644     |   0.0 | 43.05
Neigh   | 0.019443   | 0.019443   | 0.019443   |   0.0 |  0.26
Comm    | 0.029695   | 0.029695   | 0.029695   |   0.0 |  0.39
Output  | 0.55423    | 0.55423    | 0.55423    |   0.0 |  7.31
Modify  | 0          | 0          | 0          |   0.0 |  0.00
Other   |            | 0.6444     |            |       |  8.50

Nlocal:            100 ave         100 max         100 min
Histogram: 1 0 0 0 0 0 0 0 0 0
Nghost:              0 ave           0 max           0 min
Histogram: 1 0 0 0 0 0 0 0 0 0
Neighs:            470 ave         470 max         470 min
Histogram: 1 0 0 0 0 0 0 0 0 0
FullNghs:            0 ave           0 max           0 min
Histogram: 1 0 0 0 0 0 0 0 0 0

Total # of neighbors = 470
Ave neighs/atom = 4.7
Ave special neighs/atom = 5.88
Neighbor list builds = 98
Dangerous builds = 0

# Get the equilibrium distance of the harmonic bond (type 1)
variable eq_dist equal 1.0  # Replace with the actual equilibrium distance

# Continue with your simulation steps
thermo_style custom step temp
thermo 1000
timestep 1

# Specify the pair coefficients for your specific atom types
# For example, assuming you have three atom types, adjust as needed
pair_coeff * * 1.0 1.0 10.5
pair_coeff 3 3 2.0 0.5 10.5

# Specify the total number of timesteps
variable total_steps equal 10000  # Adjust as needed

# Compute distances between atom types
compute myDistances all pair/local dist

# Loop over timesteps
label loop

  # Change atom types based on distances
  if "${myDistances} < 2.0" then "set type 1 type/subset 2 1 2304"
ERROR on proc 0: Substitution for illegal variable myDistances (src/src/input.cpp:651)
Last command: ${myDistances
