read_data	InitialFile.txt
Reading data file ...
  orthogonal box = (0 0 0) to (100000 100000 100000)
  1 by 1 by 1 MPI processor grid
  reading atom labelmap ...
  reading bond labelmap ...
  reading atoms ...
  100 atoms
  scanning bonds ...
  1 = max bonds/atom
  reading bonds ...
  99 bonds
Finding 1-2 1-3 1-4 neighbors ...
  special bond factors lj:    0        0        0       
  special bond factors coul:  0        0        0       
     2 = max # of 1-2 neighbors
     2 = max # of 1-3 neighbors
     4 = max # of 1-4 neighbors
     6 = max # of special neighbors
  special bonds CPU = 0.017 seconds
  read_data CPU = 0.036 seconds

labelmap atom 1 A 2 U 3 M

# Dreiding potential information
neighbor	2.0 bin
neigh_modify every 1 delay 0 check yes

bond_style      harmonic
bond_coeff	Normal 0.1 450
bond_coeff	M-M 0.1 350

#angle_style     harmonic
#angle_coeff	Normal 60 109.5
#angle_coeff	M-M 120 109.5

#dihedral_style	multi/harmonic
#dihedral_coeff	1 1.73 -4.49 0.776 6.99 0.0
#dihedral_coeff	2 1.73 -4.49 0.776 6.99 0.0

pair_style	lj/cut 10.5
pair_coeff	* * 2 450 2000
pair_coeff	M M 2 350 2000

compute csym all centro/atom fcc
compute peratom all pe/atom


#####################################################
# Equilibration (Brownian dynamics at 300 K)

velocity 	all create 300.0 1231
fix		1 all nve/limit 100
fix 2 all brownian 300.0 12908410 gamma_t 2.0 rng gaussian # Compute a correct 300K simulation, check the value for gamma_t
thermo_style	custom step temp
thermo          10000
timestep	1
run		100000
Generated 0 of 3 mixed pair_coeff terms from geometric mixing rule
WARNING: One or more atoms are time integrated more than once (src/src/modify.cpp:289)
Neighbor list info ...
  update: every = 1 steps, delay = 0 steps, check = yes
  max neighbors/atom: 2000, page size: 100000
  master list distance cutoff = 2002
  ghost atom cutoff = 2002
  binsize = 1001, bins = 100 100 100
  2 neighbor lists, perpetual/occasional/extra = 1 1 0
  (1) pair lj/cut, perpetual
      attributes: half, newton on
      pair build: half/bin/newton
      stencil: half/bin/3d
      bin: standard
  (2) compute centro/atom, occasional
      attributes: full, newton on
      pair build: full/bin
      stencil: full/bin/3d
      bin: standard
Per MPI rank memory allocation (min/avg/max) = 9.673 | 9.673 | 9.673 Mbytes
   Step          Temp     
         0   300          
     10000   296.01795    
     20000   249.45643    
     30000   321.88553    
     40000   279.04392    
     50000   283.01213    
     60000   298.96075    
     70000   300.13072    
     80000   259.14798    
     90000   323.75605    
    100000   318.22138    
Loop time of 1.80449 on 1 procs for 100000 steps with 100 atoms

Performance: 4788.050 ns/day, 0.005 hours/ns, 55417.242 timesteps/s, 5.542 Matom-step/s
97.8% CPU use with 1 MPI tasks x no OpenMP threads

MPI task timing breakdown:
Section |  min time  |  avg time  |  max time  |%varavg| %total
---------------------------------------------------------------
Pair    | 0.20972    | 0.20972    | 0.20972    |   0.0 | 11.62
Bond    | 0.11105    | 0.11105    | 0.11105    |   0.0 |  6.15
Neigh   | 0.57694    | 0.57694    | 0.57694    |   0.0 | 31.97
Comm    | 0.09672    | 0.09672    | 0.09672    |   0.0 |  5.36
Output  | 0.00023869 | 0.00023869 | 0.00023869 |   0.0 |  0.01
Modify  | 0.75638    | 0.75638    | 0.75638    |   0.0 | 41.92
Other   |            | 0.05344    |            |       |  2.96

Nlocal:            100 ave         100 max         100 min
Histogram: 1 0 0 0 0 0 0 0 0 0
Nghost:              6 ave           6 max           6 min
Histogram: 1 0 0 0 0 0 0 0 0 0
Neighs:            136 ave         136 max         136 min
Histogram: 1 0 0 0 0 0 0 0 0 0
FullNghs:            0 ave           0 max           0 min
Histogram: 1 0 0 0 0 0 0 0 0 0

Total # of neighbors = 136
Ave neighs/atom = 1.36
Ave special neighs/atom = 5.88
Neighbor list builds = 1326
Dangerous builds = 0
unfix 1
unfix 2
write_restart 	restart.${simname}.dreiding1
write_restart 	restart.InitialFile.dreiding1
System init for write_restart ...
Generated 0 of 3 mixed pair_coeff terms from geometric mixing rule

#####################################################
# Define Settings
compute eng all pe/atom
compute eatoms all reduce sum c_eng

#####################################################
# Minimization

dump mydmp all atom 100 dump.lammpstrj

reset_timestep 0
fix 1 all nvt temp 300.0 300.0 100.0
thermo 20
thermo_style custom step pe lx ly lz press pxx pyy pzz c_eatoms
min_style cg
minimize 1.0e-4 1.0e-6 10000 10000
Generated 0 of 3 mixed pair_coeff terms from geometric mixing rule
Per MPI rank memory allocation (min/avg/max) = 10.8 | 10.8 | 10.8 Mbytes
   Step         PotEng           Lx             Ly             Lz           Press           Pxx            Pyy            Pzz          c_eatoms   
         0   212.77537      100000         100000         100000         6.3316992e-07  1.7627187e-06  8.5158149e-08  5.1632907e-08  212.77537    
        20   165.36495      100000         100000         100000         5.8252029e-07  1.6198768e-06  7.7710104e-08  4.9974024e-08  165.36495    
        40   123.53596      100000         100000         100000         5.0648299e-07  1.4065542e-06  6.6819112e-08  4.6075695e-08  123.53596    
        60   91.54788       100000         100000         100000         4.3284908e-07  1.200564e-06   5.6611556e-08  4.1371699e-08  91.54788     
        80   65.853863      100000         100000         100000         3.634241e-07   1.0065603e-06  4.7314625e-08  3.6397339e-08  65.853863    
       100   45.354757      100000         100000         100000         2.9837411e-07  8.2488733e-07  3.8875651e-08  3.1359352e-08  45.354757    
       120   29.335688      100000         100000         100000         2.3750367e-07  6.5497359e-07  3.1200235e-08  2.633717e-08   29.335688    
       140   17.231777      100000         100000         100000         1.8056203e-07  4.9611535e-07  2.4207971e-08  2.1362761e-08  17.231777    
       160   8.5814465      100000         100000         100000         1.273498e-07   3.477513e-07   1.7843479e-08  1.6454611e-08  8.5814465    
       180   3.0003653      100000         100000         100000         7.7804909e-08  2.096952e-07   1.208109e-08   1.1638438e-08  3.0003653    
       200   0.19348935     100000         100000         100000         3.3205622e-08  8.5477645e-08  7.0556473e-09  7.0835736e-09  0.19348935   
       220  -0.31806708     100000         100000         100000         1.3050816e-08  2.9343124e-08  4.8515327e-09  4.9577918e-09 -0.31806708   
       240  -0.36996864     100000         100000         100000         6.9356455e-09  1.2304826e-08  4.1947245e-09  4.3073866e-09 -0.36996864   
       260  -0.37524338     100000         100000         100000         5.0717802e-09  7.1092664e-09  3.9962751e-09  4.109799e-09  -0.37524338   
       266  -0.37554152     100000         100000         100000         4.825724e-09   6.4231592e-09  3.9701701e-09  4.0838426e-09 -0.37554152   
Loop time of 0.0156322 on 1 procs for 266 steps with 100 atoms

93.4% CPU use with 1 MPI tasks x no OpenMP threads

Minimization stats:
  Stopping criterion = energy tolerance
  Energy initial, next-to-last, final = 
      212.775367303893 -0.375504818817899 -0.375541523953033
  Force two-norm initial, final = 6.5168033 0.0058046539
  Force max component initial, final = 1.6677786 0.0020641137
  Final line search alpha, max atom move = 1 0.0020641137
  Iterations, force evaluations = 266 266

MPI task timing breakdown:
Section |  min time  |  avg time  |  max time  |%varavg| %total
---------------------------------------------------------------
Pair    | 0.0013806  | 0.0013806  | 0.0013806  |   0.0 |  8.83
Bond    | 0.00047879 | 0.00047879 | 0.00047879 |   0.0 |  3.06
Neigh   | 0.011855   | 0.011855   | 0.011855   |   0.0 | 75.84
Comm    | 0.0001268  | 0.0001268  | 0.0001268  |   0.0 |  0.81
Output  | 0.00051468 | 0.00051468 | 0.00051468 |   0.0 |  3.29
Modify  | 0          | 0          | 0          |   0.0 |  0.00
Other   |            | 0.001277   |            |       |  8.17

Nlocal:            100 ave         100 max         100 min
Histogram: 1 0 0 0 0 0 0 0 0 0
Nghost:              6 ave           6 max           6 min
Histogram: 1 0 0 0 0 0 0 0 0 0
Neighs:            136 ave         136 max         136 min
Histogram: 1 0 0 0 0 0 0 0 0 0
FullNghs:            0 ave           0 max           0 min
Histogram: 1 0 0 0 0 0 0 0 0 0

Total # of neighbors = 136
Ave neighs/atom = 1.36
Ave special neighs/atom = 5.88
Neighbor list builds = 21
Dangerous builds = 0

#molecule mol1closeTo3PRE mol1closeTo3PRE.txt
#molecule mol1closeTo3POST mol1closeTo3POST.txt
#molecule mol3closeTo1POST mol3closeTo1POST.txt
#molecule mol2closeTo3PRE mol2closeTo3PRE.txt
#molecule mol2closeTo3POST mol2closeTo3POST.txt
#molecule mol3closeTo2POST mol3closeTo2POST.txt
#molecule mol2closeTo1PRE mol2closeTo1PRE.txt
#molecule mol2closeTo1POST mol2closeTo1POST.txt

molecule mol1 molTemplate.txt
Read molecule template mol1:
  1 molecules
  0 fragments
  10 atoms with max type 3
  9 bonds with max type 2
  0 angles with max type 0
  0 dihedrals with max type 0
  0 impropers with max type 0
molecule mol2 molTemplate2.txt
Read molecule template mol2:
  1 molecules
  0 fragments
  10 atoms with max type 3
  9 bonds with max type 2
  0 angles with max type 0
  0 dihedrals with max type 0
  0 impropers with max type 0

#####################################################
# Do the reactions
fix 3 all bond/react   react reax all 1 0 1000 mol1 mol2 map_1to2.txt molecule intra   #react reac1to2 all 1 0 10 mol1closeTo3PRE mol1closeTo3POST map_1to2.txt molecule intra   #react reac2to3 all 1 0 10 mol2closeTo3PRE mol2closeTo3POST map_2to3.txt molecule intra   #react reac3to2 all 1 0 10 mol2closeTo3PRE mol3closeTo2POST map_3to2.txt molecule intra  #react reac2to1 all 1 0 10 mol2closeTo1PRE mol2closeTo1POST map_2to1.txt molecule intra
dynamic group bond_react_MASTER_group defined



thermo_style custom step temp f_3[1]

run 100000

CITE-CITE-CITE-CITE-CITE-CITE-CITE-CITE-CITE-CITE-CITE-CITE-CITE

Your simulation uses code contributions which should be cited:

- fix bond/react: reacter.org doi:10.1016/j.polymer.2017.09.038, doi:10.1021/acs.macromol.0c02012

@Article{Gissinger17,
 author = {J. R. Gissinger and B. D. Jensen and K. E. Wise},
 title = {Modeling Chemical Reactions in Classical Molecular Dynamics Simulations},
 journal = {Polymer},
 year =    2017,
 volume =  128,
 pages =   {211--217}
}

@Article{Gissinger20,
 author = {J. R. Gissinger, B. D. Jensen, K. E. Wise},
 title = {{REACTER}: A Heuristic Method for Reactive Molecular Dynamics},
 journal = {Macromolecules},
 year =    2020,
 volume =  53,
 number =  22,
 pages =   {9953--9961}
}

CITE-CITE-CITE-CITE-CITE-CITE-CITE-CITE-CITE-CITE-CITE-CITE-CITE

Generated 0 of 3 mixed pair_coeff terms from geometric mixing rule
Neighbor list info ...
  update: every = 1 steps, delay = 0 steps, check = yes
  max neighbors/atom: 2000, page size: 100000
  master list distance cutoff = 2002
  ghost atom cutoff = 2002
  binsize = 1001, bins = 100 100 100
  3 neighbor lists, perpetual/occasional/extra = 1 2 0
  (1) pair lj/cut, perpetual
      attributes: half, newton on
      pair build: half/bin/newton
      stencil: half/bin/3d
      bin: standard
  (2) compute centro/atom, occasional
      attributes: full, newton on
      pair build: full/bin
      stencil: full/bin/3d
      bin: standard
  (3) fix bond/react, occasional, copy from (1)
      attributes: half, newton on
      pair build: copy
      stencil: none
      bin: none
Per MPI rank memory allocation (min/avg/max) = 11.11 | 11.11 | 11.11 Mbytes
   Step          Temp          f_3[1]    
       266   318.22138      0            
       280   314.13977      0            
       300   296.03006      0            
       320   270.12702      0            
       340   246.161        0            
       360   233.24692      0            
       380   237.55166      0            
       400   259.88223      0            
       420   292.3592       0            
       440   322.17883      0            
       460   340.98711      0            
       480   345.99415      0            
       500   338.5403       0            
       520   323.53312      0            
       540   307.52286      0            
       560   295.9435       0            
       580   291.14074      0            
       600   292.0178       0            
       620   295.12432      0            
       640   296.53859      0            
       660   293.75046      0            
       680   286.75673      0            
       700   277.91336      0            
       720   270.73939      0            
       740   268.38633      0            
       760   272.49094      0            
       780   282.73745      0            
       800   297.0322       0            
       820   312.05634      0            
       840   324.25277      0            
       860   331.3384       0            
       880   333.47353      0            
       900   332.90868      0            
       920   332.31403      0            
       940   333.01405      0            
       960   334.07422      0            
       980   332.54385      0            
      1000   324.85245      0            
      1020   309.5263       0            
      1040   290.13729      0            
      1060   273.41758      0            
      1080   263.2952       0            
      1100   259.89383      0            
      1120   261.91991      0            
      1140   267.66166      0            
      1160   275.05209      0            
      1180   281.99698      0            
      1200   287.02984      0            
      1220   289.8715       0            
      1240   291.51013      0            
      1260   293.68687      0            
      1280   297.99998      0            
      1300   305.04058      0            
      1320   313.96498      0            
      1340   322.72459      0            
      1360   328.87971      0            
      1380   330.62724      0            
      1400   327.53807      0            
      1420   320.63735      0            
      1440   311.81166      0            
      1460   302.89082      0            
      1480   294.91456      0            
      1500   287.95419      0            
      1520   281.47617      0            
      1540   274.8816       0            
      1560   267.89521      0            
      1580   260.7921       0            
      1600   254.51222      0            
      1620   250.56081      0            
      1640   250.59846      0            
      1660   255.72455      0            
      1680   265.52291      0            
      1700   277.43841      0            
      1720   287.99755      0            
      1740   295.34397      0            
      1760   299.29476      0            
      1780   300.15893      0            
      1800   298.68691      0            
      1820   296.10878      0            
      1840   293.82903      0            
      1860   293.01565      0            
      1880   294.30717      0            
      1900   297.72807      0            
      1920   302.78919      0            
      1940   308.69037      0            
      1960   314.53227      0            
      1980   319.46731      0            
      2000   322.76474      0            
      2020   323.81986      0            
      2040   322.17339      0            
      2060   317.60213      0            
      2080   310.29022      0            
      2100   301.00185      0            
      2120   291.07942      0            
      2140   282.11435      0            
      2160   275.39883      0            
      2180   271.5159       0            
      2200   270.29425      0            
      2220   271.05576      0            
      2240   272.99181      0            
      2260   275.56377      0            
      2280   278.86168      0            
      2300   283.82179      0            
      2320   291.99752      0            
      2340   304.23208      0            
      2360   318.58856      0            
      2380   330.92657      0            
      2400   338.53178      0            
      2420   341.29618      0            
      2440   340.20911      0            
      2460   336.30584      0            
      2480   330.53394      0            
      2500   323.85348      0            
      2520   317.21975      0            
      2540   311.42891      0            
      2560   306.93795      0            
      2580   303.77282      0            
      2600   301.57277      0            
      2620   299.74964      0            
      2640   297.70368      0            
      2660   295.02936      0            
      2680   291.65449      0            
      2700   287.87826      0            
      2720   284.30721      0            
      2740   281.7187       0            
      2760   280.90047      0            
      2780   282.51729      0            
      2800   287.04646      0            
      2820   294.80118      0            
      2840   305.98834      0            
      2860   320.56259      0            
      2880   337.52069      0            
      2900   354.1066       0            
      2920   366.62622      0            
      2940   372.54345      0            
      2960   371.17744      0            
      2980   362.75409      0            
      3000   347.58134      0            
      3020   327.13204      0            
      3040   306.93349      0            
      3060   293.86523      0            
      3080   288.59003      0            
      3100   287.46663      0            
      3120   287.94359      0            
      3140   289.12971      0            
      3160   290.8715       0            
      3180   293.18274      0            
      3200   295.93398      0            
      3220   298.733        0            
      3240   301.00299      0            
      3260   302.22144      0            
      3280   302.2107       0            
      3300   301.333        0            
      3320   300.47307      0            
      3340   300.78213      0            
      3360   303.25993      0            
      3380   308.31817      0            
      3400   315.48048      0            
      3420   323.34126      0            
      3440   329.83066      0            
      3460   332.72784      0            
      3480   330.28822      0            
      3500   321.8779       0            
      3520   308.53061      0            
      3540   293.02199      0            
      3560   278.79587      0            
      3580   268.27334      0            
      3600   262.19343      0            
      3620   260.17343      0            
      3640   261.45565      0            
      3660   265.33378      0            
      3680   271.27349      0            
      3700   278.8088       0            
      3720   287.31423      0            
      3740   295.84789      0            
      3760   303.26896      0            
      3780   308.60203      0            
      3800   311.37442      0            
      3820   311.70833      0            
      3840   310.18425      0            
      3860   307.61896      0            
      3880   304.8621       0            
      3900   302.6287       0            
      3920   301.36628      0            
      3940   301.1822       0            
      3960   301.86091      0            
      3980   302.96868      0            
      4000   304.00363      0            
      4020   304.52814      0            
      4040   304.23067      0            
      4060   302.90003      0            
      4080   300.33894      0            
      4100   296.27751      0            
      4120   290.37324      0            
      4140   282.41043      0            
      4160   272.73048      0            
      4180   262.54939      0            
      4200   253.6331       0            
      4220   247.53739      0            
      4240   245.18176      0            
      4260   246.94831      0            
      4280   252.94698      0            
      4300   263.05508      0            
      4320   276.33926      0            
      4340   290.16065      0            
      4360   300.97081      0            
      4380   306.99648      0            
      4400   309.1292       0            
      4420   309.43391      0            
      4440   309.6973       0            
      4460   310.83128      0            
      4480   312.82407      0            
      4500   314.98524      0            
      4520   316.34131      0            
      4540   316.03847      0            
      4560   313.61936      0            
      4580   309.10613      0            
      4600   302.91461      0            
      4620   295.68648      0            
      4640   288.12273      0            
      4660   280.86192      0            
      4680   274.42037      0            
      4700   269.20093      0            
      4720   265.55035      0            
      4740   263.8325       0            
      4760   264.53834      0            
      4780   268.5269       0            
      4800   277.24741      0            
      4820   291.70207      0            
      4840   309.21501      0            
      4860   323.45747      0            
      4880   330.89313      0            
      4900   332.86793      0            
      4920   332.38081      0            
      4940   331.76891      0            
      4960   331.89211      0            
      4980   332.04629      0            
      5000   330.48487      0            
      5020   325.47101      0            
      5040   316.41352      0            
      5060   304.34221      0            
      5080   291.39762      0            
      5100   279.93865      0            
      5120   271.9439       0            
      5140   268.68293      0            
      5160   270.45439      0            
      5180   276.45159      0            
      5200   284.91262      0            
      5220   293.6102       0            
      5240   300.57584      0            
      5260   304.78673      0            
      5280   306.47679      0            
      5300   306.88418      0            
      5320   307.553        0            
      5340   309.53985      0            
      5360   312.89633      0            
      5380   316.63605      0            
      5400   319.13685      0            
      5420   318.66255      0            
      5440   313.69112      0            
      5460   303.5953       0            
      5480   290.15167      0            
      5500   277.35885      0            
      5520   268.67501      0            
      5540   265.06056      0            
      5560   265.31678      0            
      5580   267.31114      0            
      5600   269.07387      0            
      5620   269.58779      0            
      5640   269.17695      0            
      5660   269.36832      0            
      5680   272.20224      0            
      5700   279.16616      0            
      5720   290.25446      0            
      5740   303.84615      0            
      5760   317.43331      0            
      5780   328.43774      0            
      5800   334.77408      0            
      5820   335.33959      0            
      5840   330.36831      0            
      5860   321.39161      0            
      5880   310.72953      0            
      5900   300.71364      0            
      5920   292.98904      0            
      5940   288.18036      0            
      5960   285.98611      0            
      5980   285.56242      0            
      6000   285.98913      0            
      6020   286.6471       0            
      6040   287.4115       0            
      6060   288.65721      0            
      6080   291.17096      0            
      6100   296.12047      0            
      6120   305.01418      0            
      6140   318.81495      0            
      6160   335.78824      0            
      6180   351.17889      0            
      6200   360.62103      0            
      6220   362.60405      0            
      6240   357.86584      0            
      6260   348.17009      0            
      6280   335.69287      0            
      6300   322.82516      0            
      6320   311.84646      0            
      6340   304.16129      0            
      6360   299.71362      0            
      6380   297.28906      0            
      6400   295.38177      0            
      6420   292.93803      0            
      6440   289.6973       0            
      6460   286.16539      0            
      6480   283.33386      0            
      6500   282.27424      0            
      6520   283.73886      0            
      6540   287.8818       0            
      6560   294.17675      0            
      6580   301.56248      0            
      6600   308.79065      0            
      6620   314.87388      0            
      6640   319.45794      0            
      6660   322.9329       0            
      6680   326.1942       0            
      6700   330.10644      0            
      6720   334.8189       0            
      6740   339.18064      0            
      6760   340.73364      0            
      6780   336.73147      0            
      6800   325.92114      0            
      6820   309.95463      0            
      6840   292.77511      0            
      6860   278.10655      0            
      6880   267.92723      0            
      6900   262.8001       0            
      6920   262.4888       0            
      6940   266.22523      0            
      6960   272.87024      0            
      6980   281.12792      0            
      7000   289.78874      0            
      7020   297.93663      0            
      7040   305.07841      0            
      7060   311.14868      0            
      7080   316.34135      0            
      7100   320.8096       0            
      7120   324.39952      0            
      7140   326.58608      0            
      7160   326.64594      0            
      7180   323.94582      0            
      7200   318.15914      0            
      7220   309.3034       0            
      7240   297.7273       0            
      7260   284.40519      0            
      7280   271.41614      0            
      7300   261.33187      0            
      7320   255.49787      0            
      7340   253.50507      0            
      7360   254.12117      0            
      7380   256.18007      0            
      7400   258.92644      0            
      7420   262.05421      0            
      7440   265.64172      0            
      7460   269.97706      0            
      7480   275.26001      0            
      7500   281.34591      0            
      7520   287.70945      0            
      7540   293.63593      0            
      7560   298.51756      0            
      7580   302.10332      0            
      7600   304.58976      0            
      7620   306.52146      0            
      7640   308.55278      0            
      7660   311.17024      0            
      7680   314.47114      0            
      7700   318.0562       0            
      7720   321.04812      0            
      7740   322.21604      0            
      7760   320.18756      0            
      7780   313.79308      0            
      7800   302.68486      0            
      7820   288.1611       0            
      7840   273.26058      0            
      7860   261.2877       0            
      7880   254.2249       0            
      7900   252.60386      0            
      7920   256.06231      0            
      7940   263.64         0            
      7960   273.81247      0            
      7980   284.54187      0            
      8000   293.57748      0            
      8020   299.09508      0            
      8040   300.4315       0            
      8060   298.41595      0            
      8080   295.01528      0            
      8100   292.48805      0            
      8120   292.50335      0            
      8140   295.58796      0            
      8160   301.02604      0            
      8180   307.17866      0            
      8200   312.10605      0            
      8220   314.28088      0            
      8240   313.11941      0            
      8260   309.11277      0            
      8280   303.52119      0            
      8300   297.80077      0            
      8320   293.0416       0            
      8340   289.6541       0            
      8360   287.39328      0            
      8380   285.65209      0            
      8400   283.857        0            
      8420   281.78727      0            
      8440   279.69399      0            
      8460   278.17348      0            
      8480   277.85202      0            
      8500   279.06397      0            
      8520   281.7257       0            
      8540   285.46026      0            
      8560   289.86447      0            
      8580   294.75162      0            
      8600   300.24287      0            
      8620   306.66038      0            
      8640   314.24414      0            
      8660   322.77671      0            
      8680   331.28601      0            
      8700   338.04516      0            
      8720   340.99161      0            
      8740   338.4681       0            
      8760   330.00778      0            
      8780   316.8437       0            
      8800   301.80617      0            
      8820   288.31092      0            
      8840   278.80525      0            
      8860   273.85386      0            
      8880   272.41437      0            
      8900   272.74521      0            
      8920   273.33359      0            
      8940   273.54954      0            
      8960   273.85284      0            
      8980   275.48004      0            
      9000   279.72917      0            
      9020   287.14614      0            
      9040   296.98514      0            
      9060   307.22165      0            
      9080   315.17606      0            
      9100   318.54293      0            
      9120   316.39742      0            
      9140   309.68504      0            
      9160   300.91127      0            
      9180   293.16325      0            
      9200   288.93373      0            
      9220   289.25276      0            
      9240   293.42334      0            
      9260   299.40641      0            
      9280   304.69523      0            
      9300   307.3413       0            
      9320   306.69762      0            
      9340   303.55689      0            
      9360   299.67671      0            
      9380   296.94668      0            
      9400   296.52413      0            
      9420   298.3111       0            
      9440   301.05115      0            
      9460   302.99442      0            
      9480   302.78869      0            
      9500   300.15366      0            
      9520   296.00579      0            
      9540   291.98995      0            
      9560   289.68495      0            
      9580   289.88957      0            
      9600   292.31103      0            
      9620   295.76803      0            
      9640   298.80159      0            
      9660   300.41681      0            
      9680   300.60499      0            
      9700   300.37785      0            
      9720   301.27736      0            
      9740   304.58292      0            
      9760   310.57655      0            
      9780   318.20299      0            
      9800   325.31553      0            
      9820   329.45983      0            
      9840   328.87262      0            
      9860   323.22297      0            
      9880   313.75106      0            
      9900   302.77351      0            
      9920   292.78632      0            
      9940   285.51607      0            
      9960   281.3209       0            
      9980   279.24462      0            
     10000   277.67782      0            
     10020   275.24523      0            
     10040   271.49073      0            
     10060   267.11093      0            
     10080   263.73994      0            
     10100   263.48532      0            
     10120   268.40075      0            
     10140   279.65526      0            
     10160   295.80705      0            
     10180   311.91372      0            
     10200   323.14888      0            
     10220   328.63505      0            
     10240   330.22021      0            
     10260   329.92003      0            
     10280   328.84694      0            
     10300   327.07232      0            
     10320   323.90929      0            
     10340   318.50826      0            
     10360   310.53952      0            
     10380   300.5989       0            
     10400   290.11315      0            
     10420   280.85791      0            
     10440   274.39332      0            
     10460   271.64656      0            
     10480   272.73473      0            
     10500   277.05246      0            
     10520   283.58858      0            
     10540   291.35074      0            
     10560   299.71242      0            
     10580   308.51006      0            
     10600   317.83056      0            
     10620   327.6007       0            
     10640   337.22018      0            
     10660   345.4651       0            
     10680   350.7074       0            
     10700   351.24585      0            
     10720   345.47727      0            
     10740   332.30674      0            
     10760   313.04619      0            
     10780   293.19532      0            
     10800   279.08796      0            
     10820   272.79057      0            
     10840   272.45097      0            
     10860   274.96151      0            
     10880   277.53259      0            
     10900   278.48563      0            
     10920   277.6312       0            
     10940   276.16371      0            
     10960   276.06831      0            
     10980   279.23189      0            
     11000   286.54368      0            
     11020   297.30951      0            
     11040   309.36425      0            
     11060   320.03591      0            
     11080   327.40411      0            
     11100   330.98488      0            
     11120   331.53763      0            
     11140   330.29652      0            
     11160   328.12312      0            
     11180   325.03539      0            
     11200   320.364        0            
     11220   313.42743      0            
     11240   304.26287      0            
     11260   293.91689      0            
     11280   284.19632      0            
     11300   277.15031      0            
     11320   274.49921      0            
     11340   277.04637      0            
     11360   284.19209      0            
     11380   293.84603      0            
     11400   302.97036      0            
     11420   308.66962      0            
     11440   309.38217      0            
     11460   305.57208      0            
     11480   299.5321       0            
     11500   294.38296      0            
     11520   292.76139      0            
     11540   295.77764      0            
     11560   302.62872      0            
     11580   310.96902      0            
     11600   317.8747       0            
     11620   321.01707      0            
     11640   319.57166      0            
     11660   314.5087       0            
     11680   308.12602      0            
     11700   302.95408      0            
     11720   300.52971      0            
     11740   300.68202      0            
     11760   301.68396      0            
     11780   301.16875      0            
     11800   297.3571       0            
     11820   289.9848       0            
     11840   280.46581      0            
     11860   271.27394      0            
     11880   264.96377      0            
     11900   263.32765      0            
     11920   266.95648      0            
     11940   275.21873      0            
     11960   286.50989      0            
     11980   298.5985       0            
     12000   309.09742      0            
     12020   316.23947      0            
     12040   319.66875      0            
     12060   320.50372      0            
     12080   320.5303       0            
     12100   321.17161      0            
     12120   322.85656      0            
     12140   324.97145      0            
     12160   326.25429      0            
     12180   325.36811      0            
     12200   321.41807      0            
     12220   314.29336      0            
     12240   304.80294      0            
     12260   294.52102      0            
     12280   285.241        0            
     12300   278.25986      0            
     12320   273.96384      0            
     12340   271.98922      0            
     12360   271.94148      0            
     12380   273.89667      0            
     12400   278.08622      0            
     12420   284.37458      0            
     12440   292.02676      0            
     12460   299.82063      0            
     12480   306.43037      0            
     12500   310.91206      0            
     12520   313.05107      0            
     12540   313.38091      0            
     12560   312.85532      0            
     12580   312.34033      0            
     12600   312.17954      0            
     12620   312.03894      0            
     12640   311.09514      0            
     12660   308.46951      0            
     12680   303.70028      0            
     12700   297.03393      0            
     12720   289.39855      0            
     12740   282.05577      0            
     12760   276.08211      0            
     12780   271.95351      0            
     12800   269.47476      0            
     12820   268.0849       0            
     12840   267.35283      0            
     12860   267.40754      0            
     12880   269.11058      0            
     12900   273.87022      0            
     12920   282.99746      0            
     12940   296.50373      0            
     12960   311.96021      0            
     12980   325.2329       0            
     13000   333.08129      0            
     13020   334.71951      0            
     13040   331.49018      0            
     13060   325.88312      0            
     13080   320.49518      0            
     13100   317.07557      0            
     13120   315.90899      0            
     13140   315.79576      0            
     13160   314.68926      0            
     13180   310.75587      0            
     13200   303.3599       0            
     13220   293.45115      0            
     13240   283.18276      0            
     13260   275.05698      0            
     13280   271.03888      0            
     13300   271.90922      0            
     13320   277.00136      0            
     13340   284.44126      0            
     13360   291.88193      0            
     13380   297.45086      0            
     13400   300.45519      0            
     13420   301.50445      0            
     13440   302.01271      0            
     13460   303.33626      0            
     13480   305.96617      0            
     13500   309.16911      0            
     13520   311.27151      0            
     13540   310.48461      0            
     13560   305.88374      0            
     13580   298.03391      0            
     13600   288.9142       0            
     13620   281.17173      0            
     13640   277.08978      0            
     13660   277.75594      0            
     13680   282.73215      0            
     13700   290.24057      0            
     13720   297.7696       0            
     13740   303.01428      0            
     13760   304.85627      0            
     13780   303.86853      0            
     13800   302.00786      0            
     13820   301.63248      0            
     13840   304.34686      0            
     13860   310.21336      0            
     13880   317.66832      0            
     13900   324.18594      0            
     13920   327.40881      0            
     13940   326.20426      0            
     13960   321.105        0            
     13980   313.91942      0            
     14000   306.75546      0            
     14020   300.99958      0            
     14040   296.77021      0            
     14060   293.07222      0            
     14080   288.50127      0            
     14100   282.09702      0            
     14120   273.94036      0            
     14140   265.28055      0            
     14160   258.20644      0            
     14180   255.03623      0            
     14200   257.66237      0            
     14220   267.00039      0            
     14240   282.40339      0            
     14260   300.86463      0            
     14280   317.17014      0            
     14300   326.71417      0            
     14320   328.53289      0            
     14340   324.96055      0            
     14360   319.21306      0            
     14380   313.71297      0            
     14400   309.62163      0            
     14420   306.96767      0            
     14440   305.08773      0            
     14460   303.20582      0            
     14480   300.90528      0            
     14500   298.28867      0            
     14520   295.79039      0            
     14540   293.79559      0            
     14560   292.31383      0            
     14580   290.90909      0            
     14600   288.9367       0            
     14620   285.96567      0            
     14640   282.16035      0            
     14660   278.41297      0            
     14680   276.1473       0            
     14700   276.86698      0            
     14720   281.60259      0            
     14740   290.39042      0            
     14760   301.91031      0            
     14780   313.60612      0            
     14800   322.69857      0            
     14820   327.68245      0            
     14840   329.05809      0            
     14860   328.75506      0            
     14880   328.82318      0            
     14900   330.1878       0            
     14920   332.01286      0            
     14940   331.95297      0            
     14960   327.34758      0            
     14980   317.06052      0            
     15000   302.8221       0            
     15020   288.37475      0            
     15040   277.01285      0            
     15060   270.32147      0            
     15080   268.48043      0            
     15100   270.72379      0            
     15120   275.59364      0            
     15140   281.30322      0            
     15160   286.30264      0            
     15180   289.82743      0            
     15200   292.1273       0            
     15220   294.21637      0            
     15240   297.24444      0            
     15260   301.79777      0            
     15280   307.48293      0            
     15300   313.01912      0            
     15320   316.81994      0            
     15340   317.78344      0            
     15360   315.86736      0            
     15380   312.11072      0            
     15400   308.03925      0            
     15420   304.68537      0            
     15440   301.64663      0            
     15460   296.91333      0            
     15480   288.5417       0            
     15500   277.25501      0            
     15520   265.88502      0            
     15540   256.39366      0            
     15560   249.43141      0            
     15580   245.51689      0            
     15600   245.38647      0            
     15620   249.56973      0            
     15640   257.78105      0            
     15660   268.48786      0            
     15680   279.2015       0            
     15700   287.78887      0            
     15720   293.72342      0            
     15740   298.03299      0            
     15760   302.29561      0            
     15780   307.58879      0            
     15800   313.82522      0            
     15820   319.64769      0            
     15840   322.94172      0            
     15860   321.80463      0            
     15880   315.55528      0            
     15900   305.27134      0            
     15920   293.52746      0            
     15940   283.42564      0            
     15960   277.39879      0            
     15980   276.34239      0            
     16000   279.3834       0            
     16020   284.3036       0            
     16040   288.44864      0            
     16060   289.82051      0            
     16080   287.95402      0            
     16100   284.19058      0            
     16120   281.17195      0            
     16140   281.75939      0            
     16160   287.8269       0            
     16180   299.3175       0            
     16200   313.95742      0            
     16220   328.03223      0            
     16240   337.96915      0            
     16260   341.73171      0            
     16280   339.33463      0            
     16300   332.4679       0            
     16320   323.55416      0            
     16340   314.70739      0            
     16360   307.05034      0            
     16380   300.6161       0            
     16400   294.73686      0            
     16420   288.63732      0            
     16440   281.97295      0            
     16460   275.14621      0            
     16480   269.30023      0            
     16500   265.97765      0            
     16520   266.55199      0            
     16540   271.61786      0            
     16560   280.5411       0            
     16580   291.38175      0            
     16600   301.39472      0            
     16620   308.06461      0            
     16640   310.13997      0            
     16660   307.98989      0            
     16680   303.16114      0            
     16700   297.61439      0            
     16720   293.08297      0            
     16740   290.68531      0            
     16760   290.80092      0            
     16780   293.18388      0            
     16800   297.22527      0            
     16820   302.23201      0            
     16840   307.60031      0            
     16860   312.82233      0            
     16880   317.3501       0            
     16900   320.41249      0            
     16920   320.90801      0            
     16940   317.49326      0            
     16960   309.02955      0            
     16980   295.55607      0            
     17000   279.28581      0            
     17020   264.02034      0            
     17040   252.9553       0            
     17060   247.49158      0            
     17080   247.67727      0            
     17100   252.82458      0            
     17120   261.74012      0            
     17140   272.73956      0            
     17160   283.66916      0            
     17180   292.26258      0            
     17200   297.02593      0            
     17220   298.07759      0            
     17240   297.07815      0            
     17260   296.27481      0            
     17280   297.42913      0            
     17300   301.18042      0            
     17320   306.91384      0            
     17340   313.03449      0            
     17360   317.53827      0            
     17380   318.71809      0            
     17400   315.77544      0            
     17420   309.11151      0            
     17440   300.18451      0            
     17460   290.99856      0            
     17480   283.44439      0            
     17500   278.75421      0            
     17520   277.24302      0            
     17540   278.36627      0            
     17560   281.0264       0            
     17580   284.02036      0            
     17600   286.48901      0            
     17620   288.1975       0            
     17640   289.53093      0            
     17660   291.25863      0            
     17680   294.20953      0            
     17700   298.96422      0            
     17720   305.66127      0            
     17740   313.98436      0            
     17760   323.24877      0            
     17780   332.4309       0            
     17800   340.13437      0            
     17820   344.64796      0            
     17840   344.24536      0            
     17860   337.78498      0            
     17880   325.52009      0            
     17900   309.63205      0            
     17920   293.61953      0            
     17940   280.65575      0            
     17960   272.51228      0            
     17980   269.6593       0            
     18000   271.66533      0            
     18020   277.39242      0            
     18040   285.14144      0            
     18060   292.95768      0            
     18080   299.11643      0            
     18100   302.62873      0            
     18120   303.53092      0            
     18140   302.79757      0            
     18160   301.89761      0            
     18180   302.17705      0            
     18200   304.31215      0            
     18220   308.02998      0            
     18240   312.18132      0            
     18260   315.10538      0            
     18280   315.06953      0            
     18300   310.54292      0            
     18320   300.60817      0            
     18340   286.25911      0            
     18360   271.02113      0            
     18380   258.84848      0            
     18400   251.81388      0            
     18420   250.00064      0            
     18440   252.48697      0            
     18460   258.13952      0            
     18480   266.01198      0            
     18500   275.387        0            
     18520   285.54414      0            
     18540   295.58536      0            
     18560   304.6439       0            
     18580   312.207        0            
     18600   318.07264      0            
     18620   322.06253      0            
     18640   323.89908      0            
     18660   323.34749      0            
     18680   320.44886      0            
     18700   315.64502      0            
     18720   309.70577      0            
     18740   303.49836      0            
     18760   297.72046      0            
     18780   292.72366      0            
     18800   288.49535      0            
     18820   284.78193      0            
     18840   281.27114      0            
     18860   277.7354       0            
     18880   274.08059      0            
     18900   270.34517      0            
     18920   266.78293      0            
     18940   263.98169      0            
     18960   262.6961       0            
     18980   263.51028      0            
     19000   266.74575      0            
     19020   272.52648      0            
     19040   280.70824      0            
     19060   290.70478      0            
     19080   301.54286      0            
     19100   312.19248      0            
     19120   321.73058      0            
     19140   329.18751      0            
     19160   333.45389      0            
     19180   333.52529      0            
     19200   328.98496      0            
     19220   320.42483      0            
     19240   309.51821      0            
     19260   298.61562      0            
     19280   289.98219      0            
     19300   285.01624      0            
     19320   283.80552      0            
     19340   285.17669      0            
     19360   287.17953      0            
     19380   287.83056      0            
     19400   285.87131      0            
     19420   281.27263      0            
     19440   275.31021      0            
     19460   270.24059      0            
     19480   268.7422       0            
     19500   273.16847      0            
     19520   284.51459      0            
     19540   301.26811      0            
     19560   319.17974      0            
     19580   333.22486      0            
     19600   340.32264      0            
     19620   340.24864      0            
     19640   334.89884      0            
     19660   327.05515      0            
     19680   319.19741      0            
     19700   312.68596      0            
     19720   307.55487      0            
     19740   302.92693      0            
     19760   297.79026      0            
     19780   291.71753      0            
     19800   285.17174      0            
     19820   279.30612      0            
     19840   275.43709      0            
     19860   274.46873      0            
     19880   276.50456      0            
     19900   280.80811      0            
     19920   286.18959      0            
     19940   291.77672      0            
     19960   297.92736      0            
     19980   306.4921       0            
     20000   318.8594       0            
     20020   332.84899      0            
     20040   344.49154      0            
     20060   352.28302      0            
     20080   356.44411      0            
     20100   356.73675      0            
     20120   352.40297      0            
     20140   343.33521      0            
     20160   330.97745      0            
     20180   318.04021      0            
     20200   307.25023      0            
     20220   300.26529      0            
     20240   297.32607      0            
     20260   297.39133      0            
     20280   298.56107      0            
     20300   298.77794      0            
     20320   296.65266      0            
     20340   292.07153      0            
     20360   286.27408      0            
     20380   281.34338      0            
     20400   279.35309      0            
     20420   281.56141      0            
     20440   287.97892      0            
     20460   297.44267      0            
     20480   308.09852      0            
     20500   318.04688      0            
     20520   325.96516      0            
     20540   331.62576      0            
     20560   336.03222      0            
     20580   340.76781      0            
     20600   346.69358      0            
     20620   352.7471       0            
     20640   355.53122      0            
     20660   350.09633      0            
     20680   333.10895      0            
     20700   309.00451      0            
     20720   288.23376      0            
     20740   275.47154      0            
     20760   270.03054      0            
     20780   270.98642      0            
     20800   277.27332      0            
     20820   286.792        0            
     20840   296.52403      0            
     20860   303.46119      0            
     20880   305.79593      0            
     20900   303.72234      0            
     20920   299.36863      0            
     20940   295.85844      0            
     20960   295.95758      0            
     20980   300.9023       0            
     21000   309.84923      0            
     21020   320.14887      0            
     21040   328.39306      0            
     21060   331.84754      0            
     21080   329.58173      0            
     21100   322.69537      0            
     21120   313.56111      0            
     21140   304.57495      0            
     21160   297.14177      0            
     21180   291.39009      0            
     21200   286.56972      0            
     21220   281.68986      0            
     21240   276.07312      0            
     21260   269.77331      0            
     21280   263.75281      0            
     21300   259.64835      0            
     21320   259.16225      0            
     21340   263.33907      0            
     21360   271.99392      0            
     21380   283.4357       0            
     21400   294.66575      0            
     21420   302.42578      0            
     21440   304.96441      0            
     21460   303.20799      0            
     21480   300.20098      0            
     21500   299.30745      0            
     21520   302.51382      0            
     21540   309.59364      0            
     21560   318.19845      0            
     21580   324.76595      0            
     21600   325.98268      0            
     21620   320.25354      0            
     21640   308.48793      0            
     21660   293.75651      0            
     21680   279.99247      0            
     21700   270.49664      0            
     21720   266.98828      0            
     21740   269.41588      0            
     21760   276.3564       0            
     21780   285.76338      0            
     21800   295.81341      0            
     21820   305.53463      0            
     21840   314.8888       0            
     21860   324.22174      0            
     21880   333.5438       0            
     21900   342.32012      0            
     21920   349.71732      0            
     21940   354.71409      0            
     21960   356.01983      0            
     21980   352.13544      0            
     22000   341.80987      0            
     22020   325.45477      0            
     22040   307.32076      0            
     22060   293.74618      0            
     22080   286.96327      0            
     22100   284.63926      0            
     22120   284.09916      0            
     22140   283.97108      0            
     22160   283.89254      0            
     22180   284.16144      0            
     22200   285.44683      0            
     22220   288.44241      0            
     22240   293.50547      0            
     22260   300.39911      0            
     22280   308.25197      0            
     22300   315.78147      0            
     22320   321.70438      0            
     22340   325.14801      0            
     22360   325.86659      0            
     22380   324.17381      0            
     22400   320.6473       0            
     22420   315.77022      0            
     22440   309.71459      0            
     22460   302.42635      0            
     22480   293.99596      0            
     22500   284.994        0            
     22520   276.36359      0            
     22540   268.97132      0            
     22560   263.35811      0            
     22580   259.85565      0            
     22600   258.78714      0            
     22620   260.53826      0            
     22640   265.46622      0            
     22660   273.62734      0            
     22680   284.2852       0            
     22700   295.48825      0            
     22720   304.5848       0            
     22740   309.87614      0            
     22760   311.71065      0            
     22780   311.69412      0            
     22800   311.35992      0            
     22820   311.66306      0            
     22840   312.88964      0            
     22860   314.59396      0            
     22880   315.65226      0            
     22900   314.5646       0            
     22920   310.00684      0            
     22940   301.4611       0            
     22960   289.62682      0            
     22980   276.38174      0            
     23000   264.3373       0            
     23020   256.251        0            
     23040   254.50352      0            
     23060   260.67138      0            
     23080   275.0687       0            
     23100   296.0071       0            
     23120   319.04472      0            
     23140   337.89987      0            
     23160   347.53868      0            
     23180   346.5282       0            
     23200   336.99901      0            
     23220   323.2508       0            
     23240   309.99317      0            
     23260   300.79952      0            
     23280   297.24384      0            
     23300   298.84115      0            
     23320   303.58041      0            
     23340   308.78304      0            
     23360   312.0414       0            
     23380   311.96639      0            
     23400   308.50139      0            
     23420   302.72035      0            
     23440   296.25583      0            
     23460   290.65089      0            
     23480   286.90875      0            
     23500   285.36522      0            
     23520   285.84484      0            
     23540   287.96695      0            
     23560   291.45615      0            
     23580   296.36703      0            
     23600   303.21819      0            
     23620   313.01717      0            
     23640   326.76129      0            
     23660   343.73349      0            
     23680   360.17537      0            
     23700   371.45321      0            
     23720   375.14621      0            
     23740   371.21442      0            
     23760   360.80121      0            
     23780   345.84333      0            
     23800   329.58694      0            
     23820   315.96944      0            
     23840   306.91485      0            
     23860   301.37274      0            
     23880   297.37529      0            
     23900   293.81975      0            
     23920   290.7354       0            
     23940   288.80641      0            
     23960   288.73579      0            
     23980   290.71961      0            
     24000   294.20733      0            
     24020   298.03373      0            
     24040   300.87634      0            
     24060   301.8528       0            
     24080   300.98703      0            
     24100   299.3095       0            
     24120   298.51997      0            
     24140   300.33995      0            
     24160   305.79762      0            
     24180   314.69034      0            
     24200   325.42748      0            
     24220   335.39819      0            
     24240   341.82267      0            
     24260   342.72318      0            
     24280   337.53178      0            
     24300   327.15394      0            
     24320   313.70608      0            
     24340   300.08051      0            
     24360   289.03153      0            
     24380   281.8956       0            
     24400   278.12532      0            
     24420   276.0834       0            
     24440   274.20235      0            
     24460   271.75741      0            
     24480   269.09471      0            
     24500   267.40505      0            
     24520   268.20306      0            
     24540   272.67625      0            
     24560   281.05303      0            
     24580   292.2294       0            
     24600   304.03778      0            
     24620   314.20395      0            
     24640   321.27609      0            
     24660   324.8354       0            
     24680   325.14044      0            
     24700   322.73469      0            
     24720   318.25201      0            
     24740   312.37253      0            
     24760   305.83543      0            
     24780   299.44072      0            
     24800   293.99417      0            
     24820   290.18178      0            
     24840   288.4023       0            
     24860   288.62232      0            
     24880   290.33306      0            
     24900   292.66886      0            
     24920   294.69354      0            
     24940   295.78786      0            
     24960   296.01307      0            
     24980   296.30016      0            
     25000   298.28382      0            
     25020   303.61957      0            
     25040   312.95695      0            
     25060   325.26002      0            
     25080   338.12147      0            
     25100   348.79429      0            
     25120   355.02749      0            
     25140   355.40563      0            
     25160   349.51087      0            
     25180   338.1782       0            
     25200   323.77437      0            
     25220   309.75125      0            
     25240   298.92909      0            
     25260   292.0645       0            
     25280   288.21871      0            
     25300   285.96406      0            
     25320   284.21254      0            
     25340   282.51311      0            
     25360   281.02388      0            
     25380   280.30661      0            
     25400   281.04837      0            
     25420   283.8023       0            
     25440   288.80791      0            
     25460   295.90832      0            
     25480   304.55826      0            
     25500   313.91305      0            
     25520   322.964        0            
     25540   330.64458      0            
     25560   335.8539       0            
     25580   337.43558      0            
     25600   334.1899       0            
     25620   324.96481      0            
     25640   309.07402      0            
     25660   287.95076      0            
     25680   267.19611      0            
     25700   253.34311      0            
     25720   248.40912      0            
     25740   250.7385       0            
     25760   257.73187      0            
     25780   266.82154      0            
     25800   275.66425      0            
     25820   282.42797      0            
     25840   286.20987      0            
     25860   287.30187      0            
     25880   287.07163      0            
     25900   287.43709      0            
     25920   290.11842      0            
     25940   295.94842      0            
     25960   304.50162      0            
     25980   314.19723      0            
     26000   322.85548      0            
     26020   328.4875       0            
     26040   329.98182      0            
     26060   327.39779      0            
     26080   321.76616      0            
     26100   314.53331      0            
     26120   306.94686      0            
     26140   299.67923      0            
     26160   292.82417      0            
     26180   286.17714      0            
     26200   279.57959      0            
     26220   273.15705      0            
     26240   267.41173      0            
     26260   263.18555      0            
     26280   261.51318      0            
     26300   263.43591      0            
     26320   269.94473      0            
     26340   282.24494      0            
     26360   301.78694      0            
     26380   326.6671       0            
     26400   346.42656      0            
     26420   352.84425      0            
     26440   349.24138      0            
     26460   341.46008      0            
     26480   332.93528      0            
     26500   325.43471      0            
     26520   319.5757       0            
     26540   315.0411       0            
     26560   310.9463       0            
     26580   306.32401      0            
     26600   300.54417      0            
     26620   293.53108      0            
     26640   285.7558       0            
     26660   278.07627      0            
     26680   271.5254       0            
     26700   267.12408      0            
     26720   265.75121      0            
     26740   268.05428      0            
     26760   274.33524      0            
     26780   284.32674      0            
     26800   296.8845       0            
     26820   309.91734      0            
     26840   320.9407       0            
     26860   328.00945      0            
     26880   330.32535      0            
     26900   328.27975      0            
     26920   323.15955      0            
     26940   316.70747      0            
     26960   310.6213       0            
     26980   306.08971      0            
     27000   303.48995      0            
     27020   302.34313      0            
     27040   301.54616      0            
     27060   299.80666      0            
     27080   296.12359      0            
     27100   290.11285      0            
     27120   282.00729      0            
     27140   272.27318      0            
     27160   261.06495      0            
     27180   248.50463      0            
     27200   236.37967      0            
     27220   227.73922      0            
     27240   223.9067       0            
     27260   224.19482      0            
     27280   227.58518      0            
     27300   233.66149      0            
     27320   242.28309      0            
     27340   252.31604      0            
     27360   261.57194      0            
     27380   269.22442      0            
     27400   276.44467      0            
     27420   284.38894      0            
     27440   293.06584      0            
     27460   301.54564      0            
     27480   308.61613      0            
     27500   313.42703      0            
     27520   315.87354      0            
     27540   316.58198      0            
     27560   316.53353      0            
     27580   316.52418      0            
     27600   316.72193      0            
     27620   316.53017      0            
     27640   314.83731      0            
     27660   310.57451      0            
     27680   303.3501       0            
     27700   293.82939      0            
     27720   283.59735      0            
     27740   274.56337      0            
     27760   268.29806      0            
     27780   265.64807      0            
     27800   266.6817       0            
     27820   270.87322      0            
     27840   277.44839      0            
     27860   285.78955      0            
     27880   295.64205      0            
     27900   306.70855      0            
     27920   317.74562      0            
     27940   326.65307      0            
     27960   332.17036      0            
     27980   334.79279      0            
     28000   335.83386      0            
     28020   336.21955      0            
     28040   336.04419      0            
     28060   334.7903       0            
     28080   331.82671      0            
     28100   326.85421      0            
     28120   320.09934      0            
     28140   312.23908      0            
     28160   304.181        0            
     28180   296.8319       0            
     28200   290.91901      0            
     28220   286.88624      0            
     28240   284.87708      0            
     28260   284.79665      0            
     28280   286.4176       0            
     28300   289.47917      0            
     28320   293.73673      0            
     28340   298.9486       0            
     28360   304.82321      0            
     28380   310.97588      0            
     28400   316.94277      0            
     28420   322.26295      0            
     28440   326.5819       0            
     28460   329.70266      0            
     28480   331.567        0            
     28500   332.22131      0            
     28520   331.76455      0            
     28540   330.20752      0            
     28560   327.29947      0            
     28580   322.54019      0            
     28600   315.53097      0            
     28620   306.47621      0            
     28640   296.32683      0            
     28660   286.36694      0            
     28680   277.75183      0            
     28700   271.41047      0            
     28720   268.09549      0            
     28740   268.30196      0            
     28760   272.07679      0            
     28780   278.87349      0            
     28800   287.56566      0            
     28820   296.65686      0            
     28840   304.66571      0            
     28860   310.59375      0            
     28880   314.28485      0            
     28900   316.45531      0            
     28920   318.32095      0            
     28940   320.98393      0            
     28960   324.8691       0            
     28980   329.43152      0            
     29000   333.14401      0            
     29020   333.57325      0            
     29040   327.78295      0            
     29060   314.44489      0            
     29080   296.76786      0            
     29100   280.84548      0            
     29120   270.374        0            
     29140   265.43536      0            
     29160   264.49527      0            
     29180   265.76393      0            
     29200   267.78773      0            
     29220   269.83043      0            
     29240   272.0666       0            
     29260   275.43604      0            
     29280   281.11488      0            
     29300   289.79384      0            
     29320   301.15367      0            
     29340   313.80666      0            
     29360   325.59867      0            
     29380   334.0895       0            
     29400   337.20236      0            
     29420   333.95132      0            
     29440   324.93476      0            
     29460   312.27681      0            
     29480   298.95613      0            
     29500   287.82249      0            
     29520   280.79001      0            
     29540   278.51377      0            
     29560   280.51352      0            
     29580   285.54881      0            
     29600   292.07578      0            
     29620   298.66992      0            
     29640   304.33108      0            
     29660   308.63447      0            
     29680   311.76782      0            
     29700   314.51823      0            
     29720   318.00052      0            
     29740   322.77719      0            
     29760   328.2951       0            
     29780   333.58084      0            
     29800   338.09737      0            
     29820   341.77032      0            
     29840   344.41507      0            
     29860   345.20967      0            
     29880   342.71678      0            
     29900   335.68476      0            
     29920   324.23214      0            
     29940   310.14791      0            
     29960   295.73819      0            
     29980   282.79733      0            
     30000   272.69773      0            
     30020   266.65615      0            
     30040   265.55234      0            
     30060   269.5473       0            
     30080   277.83866      0            
     30100   288.70241      0            
     30120   299.85955      0            
     30140   309.12878      0            
     30160   315.1584       0            
     30180   317.86087      0            
     30200   318.27051      0            
     30220   317.89545      0            
     30240   317.91311      0            
     30260   318.57389      0            
     30280   319.00158      0            
     30300   317.37113      0            
     30320   311.4402       0            
     30340   299.80144      0            
     30360   283.88122      0            
     30380   268.09154      0            
     30400   256.47962      0            
     30420   250.41182      0            
     30440   249.40727      0            
     30460   252.39222      0            
     30480   258.25335      0            
     30500   266.00419      0            
     30520   274.75918      0            
     30540   283.63694      0            
     30560   291.81814      0            
     30580   298.78227      0            
     30600   304.38385      0            
     30620   308.61181      0            
     30640   311.33789      0            
     30660   312.34388      0            
     30680   311.57186      0            
     30700   309.34866      0            
     30720   306.38903      0            
     30740   303.55096      0            
     30760   301.4724       0            
     30780   300.28565      0            
     30800   299.56343      0            
     30820   298.53285      0            
     30840   296.45721      0            
     30860   292.99528      0            
     30880   288.35981      0            
     30900   283.22233      0            
     30920   278.46253      0            
     30940   274.87098      0            
     30960   272.84487      0            
     30980   272.22183      0            
     31000   272.44871      0            
     31020   273.03685      0            
     31040   274.0252       0            
     31060   276.16393      0            
     31080   280.65993      0            
     31100   288.50996      0            
     31120   299.68776      0            
     31140   312.68803      0            
     31160   324.83177      0            
     31180   333.19061      0            
     31200   335.64454      0            
     31220   331.69876      0            
     31240   322.78119      0            
     31260   311.82158      0            
     31280   302.1957       0            
     31300   296.44657      0            
     31320   295.30243      0            
     31340   297.35861      0            
     31360   299.55237      0            
     31380   298.35542      0            
     31400   291.38153      0            
     31420   278.73686      0            
     31440   263.13712      0            
     31460   248.51743      0            
     31480   238.38219      0            
     31500   235.06258      0            
     31520   239.70569      0            
     31540   252.4452       0            
     31560   272.01781      0            
     31580   293.84248      0            
     31600   309.96763      0            
     31620   315.90824      0            
     31640   314.05752      0            
     31660   308.84128      0            
     31680   303.69986      0            
     31700   300.69821      0            
     31720   300.40705      0            
     31740   302.05084      0            
     31760   304.06545      0            
     31780   304.89127      0            
     31800   303.68412      0            
     31820   300.65073      0            
     31840   296.88732      0            
     31860   293.83629      0            
     31880   292.63971      0            
     31900   293.6722       0            
     31920   296.41406      0            
     31940   299.67114      0            
     31960   302.02878      0            
     31980   302.36076      0            
     32000   300.20706      0            
     32020   295.89524      0            
     32040   290.39185      0            
     32060   284.9812       0            
     32080   280.92384      0            
     32100   279.21932      0            
     32120   280.50838      0            
     32140   285.05244      0            
     32160   292.68628      0            
     32180   302.69598      0            
     32200   313.73414      0            
     32220   323.99951      0            
     32240   331.73208      0            
     32260   335.74269      0            
     32280   335.67423      0            
     32300   331.94276      0            
     32320   325.46211      0            
     32340   317.28747      0            
     32360   308.34354      0            
     32380   299.38504      0            
     32400   291.12988      0            
     32420   284.23739      0            
     32440   279.00883      0            
     32460   275.22375      0            
     32480   272.39898      0            
     32500   270.2007       0            
     32520   268.66584      0            
     32540   268.15061      0            
     32560   269.09732      0            
     32580   271.75487      0            
     32600   275.99352      0            
     32620   281.33934      0            
     32640   287.22682      0            
     32660   293.231        0            
     32680   299.02931      0            
     32700   304.18877      0            
[...]
     91460   321.10593      0            
     91480   322.94874      0            
     91500   321.18601      0            
     91520   314.5898       0            
     91540   301.83655      0            
     91560   283.31202      0            
     91580   264.14613      0            
     91600   250.53226      0            
     91620   243.81119      0            
     91640   242.40038      0            
     91660   244.82283      0            
     91680   250.23942      0            
     91700   258.0347       0            
     91720   267.3845       0            
     91740   277.10491      0            
     91760   285.87165      0            
     91780   292.63938      0            
     91800   296.98481      0            
     91820   299.24286      0            
     91840   300.42082      0            
     91860   301.8908       0            
     91880   304.90452      0            
     91900   310.06093      0            
     91920   316.91675      0            
     91940   323.91978      0            
     91960   328.7581       0            
     91980   329.06821      0            
     92000   323.29736      0            
     92020   311.45467      0            
     92040   295.47683      0            
     92060   278.83903      0            
     92080   265.23475      0            
     92100   257.11035      0            
     92120   255.14827      0            
     92140   258.65084      0            
     92160   266.17759      0            
     92180   276.1358       0            
     92200   287.25983      0            
     92220   298.87963      0            
     92240   310.84098      0            
     92260   323.05193      0            
     92280   334.93379      0            
     92300   345.27318      0            
     92320   352.60334      0            
     92340   355.64598      0            
     92360   353.31223      0            
     92380   343.74432      0            
     92400   322.78354      0            
     92420   291.91346      0            
     92440   267.7334       0            
     92460   257.11543      0            
     92480   255.59946      0            
     92500   259.25333      0            
     92520   265.47919      0            
     92540   272.32652      0            
     92560   278.49023      0            
     92580   283.48636      0            
     92600   287.68554      0            
     92620   292.09292      0            
     92640   297.8979       0            
     92660   305.91875      0            
     92680   316.12656      0            
     92700   327.4294       0            
     92720   337.82048      0            
     92740   344.867        0            
     92760   346.40332      0            
     92780   341.26864      0            
     92800   329.95404      0            
     92820   314.82511      0            
     92840   299.27312      0            
     92860   286.00801      0            
     92880   276.13017      0            
     92900   269.6021       0            
     92920   266.08749      0            
     92940   265.4144       0            
     92960   267.64065      0            
     92980   272.86735      0            
     93000   280.92471      0            
     93020   291.08677      0            
     93040   302.00593      0            
     93060   311.96586      0            
     93080   319.34815      0            
     93100   323.09308      0            
     93120   322.98051      0            
     93140   319.6471       0            
     93160   314.33409      0            
     93180   308.45278      0            
     93200   303.13547      0            
     93220   298.94915      0            
     93240   295.87272      0            
     93260   293.52001      0            
     93280   291.49014      0            
     93300   289.67999      0            
     93320   288.41465      0            
     93340   288.33052      0            
     93360   290.05134      0            
     93380   293.78737      0            
     93400   299.03429      0            
     93420   304.53989      0            
     93440   308.63293      0            
     93460   309.86253      0            
     93480   307.69758      0            
     93500   302.85206      0            
     93520   296.94387      0            
     93540   291.89978      0            
     93560   289.49609      0            
     93580   290.83043      0            
     93600   295.85221      0            
     93620   303.23747      0            
     93640   310.71533      0            
     93660   315.78676      0            
     93680   316.60927      0            
     93700   312.69598      0            
     93720   305.1107       0            
     93740   296.0589       0            
     93760   288.06257      0            
     93780   283.09072      0            
     93800   281.98827      0            
     93820   284.35729      0            
     93840   288.85332      0            
     93860   293.75087      0            
     93880   297.58476      0            
     93900   299.65859      0            
     93920   300.24444      0            
     93940   300.40189      0            
     93960   301.49024      0            
     93980   304.56518      0            
     94000   309.88499      0            
     94020   316.70893      0            
     94040   323.48171      0            
     94060   328.35967      0            
     94080   329.87281      0            
     94100   327.43786      0            
     94120   321.51996      0            
     94140   313.42015      0            
     94160   304.82074      0            
     94180   297.27483      0            
     94200   291.79006      0            
     94220   288.59716      0            
     94240   287.15232      0            
     94260   286.37331      0            
     94280   285.03437      0            
     94300   282.18873      0            
     94320   277.49003      0            
     94340   271.33804      0            
     94360   264.85275      0            
     94380   259.75456      0            
     94400   258.26283      0            
     94420   262.9731       0            
     94440   275.83635      0            
     94460   294.78122      0            
     94480   312.74851      0            
     94500   324.92182      0            
     94520   331.43776      0            
     94540   333.46662      0            
     94560   331.71572      0            
     94580   326.88595      0            
     94600   320.00389      0            
     94620   312.34563      0            
     94640   305.12717      0            
     94660   299.16502      0            
     94680   294.68514      0            
     94700   291.37115      0            
     94720   288.62084      0            
     94740   285.89134      0            
     94760   282.98938      0            
     94780   280.19664      0            
     94800   278.19369      0            
     94820   277.83227      0            
     94840   279.86857      0            
     94860   284.77409      0            
     94880   292.64962      0            
     94900   303.08438      0            
     94920   314.77644      0            
     94940   325.36885      0            
     94960   332.47501      0            
     94980   335.29239      0            
     95000   334.92128      0            
     95020   333.28139      0            
     95040   331.87005      0            
     95060   331.10495      0            
     95080   330.3676       0            
     95100   328.60241      0            
     95120   325.15797      0            
     95140   320.37331      0            
     95160   315.40958      0            
     95180   311.36735      0            
     95200   308.53491      0            
     95220   306.44946      0            
     95240   304.33206      0            
     95260   301.38464      0            
     95280   297.06659      0            
     95300   291.41563      0            
     95320   285.24437      0            
     95340   280.05181      0            
     95360   277.63411      0            
     95380   279.51413      0            
     95400   286.35984      0            
     95420   297.55074      0            
     95440   311.06672      0            
     95460   323.9119       0            
     95480   333.11222      0            
     95500   336.85193      0            
     95520   335.06698      0            
     95540   329.16113      0            
     95560   321.0526       0            
     95580   312.09944      0            
     95600   302.59678      0            
     95620   292.39564      0            
     95640   282.12392      0            
     95660   273.19047      0            
     95680   266.53739      0            
     95700   262.34606      0            
     95720   260.74276      0            
     95740   262.11146      0            
     95760   266.73159      0            
     95780   274.19201      0            
     95800   283.04597      0            
     95820   291.01446      0            
     95840   295.7787       0            
     95860   296.01616      0            
     95880   292.108        0            
     95900   286.12411      0            
     95920   281.10324      0            
     95940   279.95554      0            
     95960   284.39316      0            
     95980   294.23077      0            
     96000   307.30431      0            
     96020   320.11511      0            
     96040   329.04251      0            
     96060   331.67042      0            
     96080   327.66014      0            
     96100   318.77748      0            
     96120   308.07091      0            
     96140   298.61134      0            
     96160   292.40139      0            
     96180   289.89486      0            
     96200   290.19023      0            
     96220   291.67908      0            
     96240   292.83318      0            
     96260   292.8212       0            
     96280   291.72856      0            
     96300   290.32677      0            
     96320   289.54208      0            
     96340   289.90085      0            
     96360   291.22228      0            
     96380   292.71517      0            
     96400   293.45098      0            
     96420   292.96188      0            
     96440   291.59139      0            
     96460   290.40468      0            
     96480   290.75097      0            
     96500   293.66951      0            
     96520   299.35399      0            
     96540   306.89653      0            
     96560   314.45462      0            
     96580   319.82747      0            
     96600   321.2372       0            
     96620   317.98255      0            
     96640   310.66905      0            
     96660   300.92185      0            
     96680   290.73336      0            
     96700   281.74897      0            
     96720   274.79531      0            
     96740   269.82649      0            
     96760   266.26772      0            
     96780   263.57235      0            
     96800   261.75996      0            
     96820   261.76082      0            
     96840   265.43155      0            
     96860   274.90853      0            
     96880   290.71708      0            
     96900   309.65402      0            
     96920   326.35886      0            
     96940   337.31525      0            
     96960   341.584        0            
     96980   339.6182       0            
     97000   332.70843      0            
     97020   322.78479      0            
     97040   312.05728      0            
     97060   302.5012       0            
     97080   295.41073      0            
     97100   291.21042      0            
     97120   289.55978      0            
     97140   289.64278      0            
     97160   290.49086      0            
     97180   291.2308       0            
     97200   291.21843      0            
     97220   290.07978      0            
     97240   287.71687      0            
     97260   284.34244      0            
     97280   280.5908       0            
     97300   277.66799      0            
     97320   277.29567      0            
     97340   281.17142      0            
     97360   290.10535      0            
     97380   303.29372      0            
     97400   318.32044      0            
     97420   332.11654      0            
     97440   342.02593      0            
     97460   346.28946      0            
     97480   344.22164      0            
     97500   336.34037      0            
     97520   324.34422      0            
     97540   310.77048      0            
     97560   298.28573      0            
     97580   288.82541      0            
     97600   283.05958      0            
     97620   280.48254      0            
     97640   279.95701      0            
     97660   280.35835      0            
     97680   281.06377      0            
     97700   282.15428      0            
     97720   284.29934      0            
     97740   288.40331      0            
     97760   295.18275      0            
     97780   304.86153      0            
     97800   317.07425      0            
     97820   330.85378      0            
     97840   344.48635      0            
     97860   355.54797      0            
     97880   361.86829      0            
     97900   362.82069      0            
     97920   359.3604       0            
     97940   352.74936      0            
     97960   343.20874      0            
     97980   330.04813      0            
     98000   314.4474       0            
     98020   300.98716      0            
     98040   292.62193      0            
     98060   287.98749      0            
     98080   284.81692      0            
     98100   282.18147      0            
     98120   280.36101      0            
     98140   280.09658      0            
     98160   281.94966      0            
     98180   285.93283      0            
     98200   291.44756      0            
     98220   297.49438      0            
     98240   303.05541      0            
     98260   307.49251      0            
     98280   310.78324      0            
     98300   313.47257      0            
     98320   316.34946      0            
     98340   319.99107      0            
     98360   324.3686       0            
     98380   328.6584       0            
     98400   331.29355      0            
     98420   330.2201       0            
     98440   323.46299      0            
     98460   310.4314       0            
     98480   293.62731      0            
     98500   277.9069       0            
     98520   266.74839      0            
     98540   260.72485      0            
     98560   258.95291      0            
     98580   260.34921      0            
     98600   264.01284      0            
     98620   269.26044      0            
     98640   275.56265      0            
     98660   282.44682      0            
     98680   289.44304      0            
     98700   296.13785      0            
     98720   302.28006      0            
     98740   307.80498      0            
     98760   312.73197      0            
     98780   317.01439      0            
     98800   320.43712      0            
     98820   322.60301      0            
     98840   323.01068      0            
     98860   321.20924      0            
     98880   316.99566      0            
     98900   310.58536      0            
     98920   302.66733      0            
     98940   294.29398      0            
     98960   286.6479       0            
     98980   280.78819      0            
     99000   277.45079      0            
     99020   276.91789      0            
     99040   278.95652      0            
     99060   282.85213      0            
     99080   287.5801       0            
     99100   292.11869      0            
     99120   295.79778      0            
     99140   298.48878      0            
     99160   300.52035      0            
     99180   302.39979      0            
     99200   304.50882      0            
     99220   306.89513      0            
     99240   309.21887      0            
     99260   310.86395      0            
     99280   311.16886      0            
     99300   309.68204      0            
     99320   306.33379      0            
     99340   301.45263      0            
     99360   295.62669      0            
     99380   289.48199      0            
     99400   283.48371      0            
     99420   277.85098      0            
     99440   272.62573      0            
     99460   267.87545      0            
     99480   263.9428       0            
     99500   261.59036      0            
     99520   261.91603      0            
     99540   266.05059      0            
     99560   274.66039      0            
     99580   287.23751      0            
     99600   301.66759      0            
     99620   315.03114      0            
     99640   325.14396      0            
     99660   331.18555      0            
     99680   333.33012      0            
     99700   332.23471      0            
     99720   328.69951      0            
     99740   323.46969      0            
     99760   317.15793      0            
     99780   310.2801       0            
     99800   303.34148      0            
     99820   296.86716      0            
     99840   291.32138      0            
     99860   286.97714      0            
     99880   283.84313      0            
     99900   281.69247      0            
     99920   280.17236      0            
     99940   278.96187      0            
     99960   277.94768      0            
     99980   277.37749      0            
    100000   277.94061      0            
    100020   280.73314      0            
    100040   287.07548      0            
    100060   298.09395      0            
    100080   313.84436      0            
    100100   332.08257      0            
    100120   348.21485      0            
    100140   357.69307      0            
    100160   358.65939      0            
    100180   352.60664      0            
    100200   342.92804      0            
    100220   332.5146       0            
    100240   323.07783      0            
    100260   315.67735      0            
    100266   313.94107      0            
Loop time of 7.30856 on 1 procs for 100000 steps with 100 atoms

Performance: 1182.175 ns/day, 0.020 hours/ns, 13682.577 timesteps/s, 1.368 Matom-step/s
74.1% CPU use with 1 MPI tasks x no OpenMP threads

MPI task timing breakdown:
Section |  min time  |  avg time  |  max time  |%varavg| %total
---------------------------------------------------------------
Pair    | 0.28404    | 0.28404    | 0.28404    |   0.0 |  3.89
Bond    | 0.15434    | 0.15434    | 0.15434    |   0.0 |  2.11
Neigh   | 3.3551     | 3.3551     | 3.3551     |   0.0 | 45.91
Comm    | 0.15571    | 0.15571    | 0.15571    |   0.0 |  2.13
Output  | 0.3008     | 0.3008     | 0.3008     |   0.0 |  4.12
Modify  | 2.9645     | 2.9645     | 2.9645     |   0.0 | 40.56
Other   |            | 0.09408    |            |       |  1.29

Nlocal:            100 ave         100 max         100 min
Histogram: 1 0 0 0 0 0 0 0 0 0
Nghost:              0 ave           0 max           0 min
Histogram: 1 0 0 0 0 0 0 0 0 0
Neighs:            198 ave         198 max         198 min
Histogram: 1 0 0 0 0 0 0 0 0 0
FullNghs:            0 ave           0 max           0 min
Histogram: 1 0 0 0 0 0 0 0 0 0

Total # of neighbors = 198
Ave neighs/atom = 1.98
Ave special neighs/atom = 5.88
Neighbor list builds = 5281
Dangerous builds = 0
#####################################################
print "All done"
All done
Total wall time: 0:00:09
