read_data	InitialFile.txt
Reading data file ...
  orthogonal box = (0 0 0) to (158.5 158.5 158.5)
  1 by 1 by 1 MPI processor grid
WARNING: Atom style in data file atomic differs from currently defined atom style molecular (src/src/read_data.cpp:621)
  reading atoms ...
  100 atoms
  scanning bonds ...
  1 = max bonds/atom
  scanning angles ...
  1 = max angles/atom
  scanning dihedrals ...
  1 = max dihedrals/atom
  reading bonds ...
  99 bonds
  reading angles ...
  98 angles
  reading dihedrals ...
  97 dihedrals
Finding 1-2 1-3 1-4 neighbors ...
  special bond factors lj:    0        0        0       
  special bond factors coul:  0        0        0       
     2 = max # of 1-2 neighbors
     2 = max # of 1-3 neighbors
     4 = max # of 1-4 neighbors
     6 = max # of special neighbors
  special bonds CPU = 0.024 seconds
  read_data CPU = 0.123 seconds

# Dreiding potential information
neighbor	2.0 bin
neigh_modify every 1 delay 0 check yes

bond_style      harmonic
bond_coeff	1 350 1.53
bond_coeff	2 700 1.53

angle_style     harmonic
angle_coeff	1 60 109.5
angle_coeff	2 120 109.5

dihedral_style	multi/harmonic
dihedral_coeff	1 1.73 -4.49 0.776 6.99 0.0
dihedral_coeff	2 1.73 -4.49 0.776 6.99 0.0

pair_style	lj/cut 10.5
pair_coeff	* * 1.0 1.0 10.5
pair_coeff	3 3 2.0 0.5 10.5

compute csym all centro/atom fcc
compute peratom all pe/atom


#####################################################
# Equilibration (Brownian dynamics at 300 K)

velocity 	all create 300.0 1231
fix		1 all nve/limit 0.05
fix 2 all brownian 30.0 12908410 gamma_t 3.0 rng gaussian # Compute a correct 300K simulation, check the value for gamma_t
thermo_style	custom step temp
thermo          10000
timestep	1
run		100000
Generated 0 of 3 mixed pair_coeff terms from geometric mixing rule
WARNING: One or more atoms are time integrated more than once (src/src/modify.cpp:289)
Neighbor list info ...
  update: every = 1 steps, delay = 0 steps, check = yes
  max neighbors/atom: 2000, page size: 100000
  master list distance cutoff = 12.5
  ghost atom cutoff = 12.5
  binsize = 6.25, bins = 26 26 26
  2 neighbor lists, perpetual/occasional/extra = 1 1 0
  (1) pair lj/cut, perpetual
      attributes: half, newton on
      pair build: half/bin/newton
      stencil: half/bin/3d
      bin: standard
  (2) compute centro/atom, occasional
      attributes: full, newton on
      pair build: full/bin
      stencil: full/bin/3d
      bin: standard
Per MPI rank memory allocation (min/avg/max) = 8.124 | 8.124 | 8.124 Mbytes
   Step          Temp     
         0   300          
     10000   304.01368    
     20000   255.71863    
     30000   321.10868    
     40000   293.71464    
     50000   283.40994    
     60000   300.47507    
     70000   318.63661    
     80000   273.50579    
     90000   333.95695    
    100000   337.94215    
Loop time of 5.28176 on 1 procs for 100000 steps with 100 atoms

Performance: 1635.818 ns/day, 0.015 hours/ns, 18933.076 timesteps/s, 1.893 Matom-step/s
81.6% CPU use with 1 MPI tasks x no OpenMP threads

MPI task timing breakdown:
Section |  min time  |  avg time  |  max time  |%varavg| %total
---------------------------------------------------------------
Pair    | 1.1956     | 1.1956     | 1.1956     |   0.0 | 22.64
Bond    | 2.3673     | 2.3673     | 2.3673     |   0.0 | 44.82
Neigh   | 0.0096979  | 0.0096979  | 0.0096979  |   0.0 |  0.18
Comm    | 0.035574   | 0.035574   | 0.035574   |   0.0 |  0.67
Output  | 0.00031825 | 0.00031825 | 0.00031825 |   0.0 |  0.01
Modify  | 1.5602     | 1.5602     | 1.5602     |   0.0 | 29.54
Other   |            | 0.113      |            |       |  2.14

Nlocal:            100 ave         100 max         100 min
Histogram: 1 0 0 0 0 0 0 0 0 0
Nghost:              0 ave           0 max           0 min
Histogram: 1 0 0 0 0 0 0 0 0 0
Neighs:            630 ave         630 max         630 min
Histogram: 1 0 0 0 0 0 0 0 0 0
FullNghs:            0 ave           0 max           0 min
Histogram: 1 0 0 0 0 0 0 0 0 0

Total # of neighbors = 630
Ave neighs/atom = 6.3
Ave special neighs/atom = 5.88
Neighbor list builds = 80
Dangerous builds = 0
unfix 1
unfix 2
write_restart 	restart.${simname}.dreiding1
write_restart 	restart.InitialFile.dreiding1
System init for write_restart ...
Generated 0 of 3 mixed pair_coeff terms from geometric mixing rule

#####################################################
# Define Settings
compute eng all pe/atom
compute eatoms all reduce sum c_eng

#####################################################
# Minimization

dump mydmp all atom 100 dump.lammpstrj

reset_timestep 0
fix 1 all nvt temp 300.0 300.0 100.0
thermo 20
thermo_style custom step pe lx ly lz press pxx pyy pzz c_eatoms
min_style cg
minimize 1e-25 1e-25 500000 1000000
Generated 0 of 3 mixed pair_coeff terms from geometric mixing rule
Per MPI rank memory allocation (min/avg/max) = 9.249 | 9.249 | 9.249 Mbytes
   Step         PotEng           Lx             Ly             Lz           Press           Pxx            Pyy            Pzz          c_eatoms   
         0   17.331209      158.5          158.5          158.5          1.9210942      2.5747389      0.85117171     2.337372       17.331209    
        20   2.9126904      158.5          158.5          158.5          2.2663494      2.3868324      2.3049927      2.1072233      2.9126904    
        40   2.2665544      158.5          158.5          158.5          2.2457298      2.4420687      2.199619       2.0955018      2.2665544    
        60   2.069901       158.5          158.5          158.5          2.2243409      2.3884823      2.2220498      2.0624906      2.069901     
        80   1.8019393      158.5          158.5          158.5          2.2007921      2.3779578      2.2626009      1.9618175      1.8019393    
       100   1.5054239      158.5          158.5          158.5          1.8329001      1.9800847      1.824118       1.6944978      1.5054239    
       105   1.5054239      158.5          158.5          158.5          1.8329001      1.9800847      1.824118       1.6944978      1.5054239    
Loop time of 0.015434 on 1 procs for 105 steps with 100 atoms

83.5% CPU use with 1 MPI tasks x no OpenMP threads

Minimization stats:
  Stopping criterion = energy tolerance
  Energy initial, next-to-last, final = 
      17.3312087506454   1.50542389412974   1.50542389412974
  Force two-norm initial, final = 155.63534 9.6237955
  Force max component initial, final = 33.962672 4.5021726
  Final line search alpha, max atom move = 0.011105749 0.05
  Iterations, force evaluations = 105 302

MPI task timing breakdown:
Section |  min time  |  avg time  |  max time  |%varavg| %total
---------------------------------------------------------------
Pair    | 0.0061701  | 0.0061701  | 0.0061701  |   0.0 | 39.98
Bond    | 0.00684    | 0.00684    | 0.00684    |   0.0 | 44.32
Neigh   | 0          | 0          | 0          |   0.0 |  0.00
Comm    | 7.5115e-05 | 7.5115e-05 | 7.5115e-05 |   0.0 |  0.49
Output  | 0.0004895  | 0.0004895  | 0.0004895  |   0.0 |  3.17
Modify  | 0          | 0          | 0          |   0.0 |  0.00
Other   |            | 0.001859   |            |       | 12.05

Nlocal:            100 ave         100 max         100 min
Histogram: 1 0 0 0 0 0 0 0 0 0
Nghost:              0 ave           0 max           0 min
Histogram: 1 0 0 0 0 0 0 0 0 0
Neighs:            639 ave         639 max         639 min
Histogram: 1 0 0 0 0 0 0 0 0 0
FullNghs:            0 ave           0 max           0 min
Histogram: 1 0 0 0 0 0 0 0 0 0

Total # of neighbors = 639
Ave neighs/atom = 6.39
Ave special neighs/atom = 5.88
Neighbor list builds = 0
Dangerous builds = 0

group type1_atoms type 1
38 atoms in group type1_atoms
group type2_atoms type 2
31 atoms in group type2_atoms
group type3_atoms type 3
31 atoms in group type3_atoms

molecule mol1closeTo3PRE mol1closeTo3PRE.txt
Read molecule template mol1closeTo3PRE:
  1 molecules
  0 fragments
  5 atoms with max type 3
  4 bonds with max type 1
  3 angles with max type 1
  2 dihedrals with max type 1
  0 impropers with max type 0
molecule mol1closeTo3POST mol1closeTo3POST.txt
Read molecule template mol1closeTo3POST:
  1 molecules
  0 fragments
  5 atoms with max type 3
  4 bonds with max type 1
  3 angles with max type 1
  2 dihedrals with max type 1
  0 impropers with max type 0
molecule mol3closeTo1POST mol3closeTo1POST.txt
Read molecule template mol3closeTo1POST:
  1 molecules
  0 fragments
  5 atoms with max type 2
  4 bonds with max type 1
  3 angles with max type 1
  2 dihedrals with max type 1
  0 impropers with max type 0
molecule mol2closeTo3PRE mol2closeTo3PRE.txt
Read molecule template mol2closeTo3PRE:
  1 molecules
  0 fragments
  5 atoms with max type 3
  4 bonds with max type 1
  3 angles with max type 1
  2 dihedrals with max type 1
  0 impropers with max type 0
molecule mol2closeTo3POST mol2closeTo3POST.txt
Read molecule template mol2closeTo3POST:
  1 molecules
  0 fragments
  5 atoms with max type 3
  4 bonds with max type 1
  3 angles with max type 1
  2 dihedrals with max type 1
  0 impropers with max type 0
molecule mol3closeTo2POST mol3closeTo2POST.txt
Read molecule template mol3closeTo2POST:
  1 molecules
  0 fragments
  5 atoms with max type 2
  4 bonds with max type 1
  3 angles with max type 1
  2 dihedrals with max type 1
  0 impropers with max type 0
molecule mol2closeTo1PRE mol2closeTo1PRE.txt
Read molecule template mol2closeTo1PRE:
  1 molecules
  0 fragments
  5 atoms with max type 3
  4 bonds with max type 1
  3 angles with max type 1
  2 dihedrals with max type 1
  0 impropers with max type 0
molecule mol2closeTo1POST mol2closeTo1POST.txt
Read molecule template mol2closeTo1POST:
  1 molecules
  0 fragments
  5 atoms with max type 3
  4 bonds with max type 1
  3 angles with max type 1
  2 dihedrals with max type 1
  0 impropers with max type 0

#####################################################
# Do the reactions
fix 3 all bond/react   react reac1to2 all 1 0 3 mol1closeTo3PRE mol1closeTo3POST map_1to2.txt molecule intra   react reac2to3 type2_atoms 1 0 10 mol2closeTo3PRE mol2closeTo3POST map_2to3.txt    react reac3to2 type3_atoms 1 0 10 mol2closeTo3PRE mol3closeTo2POST map_3to2.txt    react reac2to1 type2_atoms 1 0 10 mol2closeTo1PRE mol2closeTo1POST map_2to1.txt
ERROR: Fix bond/react: Atom type affected by reaction reac1to2 is too close to template edge (src/src/REACTION/fix_bond_react.cpp:2635)
Last command: fix 3 all bond/react   react reac1to2 all 1 0 3 mol1closeTo3PRE mol1closeTo3POST map_1to2.txt molecule intra   react reac2to3 type2_atoms 1 0 10 mol2closeTo3PRE mol2closeTo3POST map_2to3.txt    react reac3to2 type3_atoms 1 0 10 mol2closeTo3PRE mol3closeTo2POST map_3to2.txt    react reac2to1 type2_atoms 1 0 10 mol2closeTo1PRE mol2closeTo1POST map_2to1.txt
