LAMMPS (2 Aug 2023 - Update 2)
# VARIABLES
variable fname index InitialFile.txt
variable simname index InitialFile
variable lj_epsilon equal 1.0
variable lj_sigma equal 2.0

# Initialization
units		lj
boundary	    p p p
atom_style bond
log 		log.${simname}.txt
log 		log.InitialFile.txt
