ITEM: TIMESTEP
0
ITEM: NUMBER OF ATOMS
10
ITEM: BOX BOUNDS pp pp pp
0.0000000000000000e+00 1.5850000000000000e+02
0.0000000000000000e+00 1.5850000000000000e+02
0.0000000000000000e+00 1.5850000000000000e+02
ITEM: ATOMS id type xs ys zs
2 3 0.0324091 0.0373662 0.0396223
4 1 0.0398887 0.037892 0.0387779
6 1 0.0401913 0.040098 0.0392109
5 2 0.037969 0.0374652 0.0482
7 3 0.0321585 0.0363531 0.0432114
10 3 0.0340927 0.0392699 0.0419826
3 2 0.0371983 0.038393 0.0480526
8 3 0.0399448 0.0311573 0.0454052
1 3 0.0373295 0.0437318 0.0447959
9 1 0.0432894 0.0401959 0.0449547
ITEM: TIMESTEP
100
ITEM: NUMBER OF ATOMS
10
ITEM: BOX BOUNDS pp pp pp
0.0000000000000000e+00 1.5850000000000000e+02
0.0000000000000000e+00 1.5850000000000000e+02
0.0000000000000000e+00 1.5850000000000000e+02
ITEM: ATOMS id type xs ys zs
2 3 0.0329047 0.0370023 0.0398401
4 1 0.0402326 0.0375317 0.0390192
6 1 0.0399666 0.0398824 0.0390843
5 2 0.0374852 0.037988 0.0482351
7 3 0.0318553 0.0367185 0.0432415
10 3 0.0340185 0.0393141 0.0423251
3 2 0.0375494 0.0373178 0.0482738
8 3 0.0398333 0.0314959 0.0446894
1 3 0.0374011 0.0441753 0.0444514
9 1 0.0432248 0.0404963 0.0450535
ITEM: TIMESTEP
200
ITEM: NUMBER OF ATOMS
10
ITEM: BOX BOUNDS pp pp pp
0.0000000000000000e+00 1.5850000000000000e+02
0.0000000000000000e+00 1.5850000000000000e+02
0.0000000000000000e+00 1.5850000000000000e+02
ITEM: ATOMS id type xs ys zs
2 3 0.0330558 0.0369434 0.0398807
4 1 0.040235 0.0372324 0.039161
6 1 0.039945 0.0397867 0.0391349
5 2 0.0375 0.0381969 0.0483514
7 3 0.0317165 0.0367645 0.0431797
10 3 0.0340322 0.0392655 0.0424136
3 2 0.0375359 0.0372045 0.0484035
8 3 0.0398242 0.0316445 0.044204
1 3 0.0374067 0.0442765 0.0443791
9 1 0.0432203 0.0406075 0.0451054
ITEM: TIMESTEP
300
ITEM: NUMBER OF ATOMS
10
ITEM: BOX BOUNDS pp pp pp
0.0000000000000000e+00 1.5850000000000000e+02
0.0000000000000000e+00 1.5850000000000000e+02
0.0000000000000000e+00 1.5850000000000000e+02
ITEM: ATOMS id type xs ys zs
2 3 0.0330418 0.036935 0.0398904
4 1 0.040245 0.0372658 0.0391691
6 1 0.0399538 0.0397528 0.0391377
5 2 0.0374889 0.0382106 0.048356
7 3 0.0317172 0.0367713 0.0431965
10 3 0.0340339 0.0392652 0.0424108
3 2 0.037533 0.0371872 0.0484072
8 3 0.0398284 0.0316477 0.0441747
1 3 0.037412 0.0442778 0.0443534
9 1 0.0432176 0.0406091 0.0451175
ITEM: TIMESTEP
400
ITEM: NUMBER OF ATOMS
10
ITEM: BOX BOUNDS pp pp pp
0.0000000000000000e+00 1.5850000000000000e+02
0.0000000000000000e+00 1.5850000000000000e+02
0.0000000000000000e+00 1.5850000000000000e+02
ITEM: ATOMS id type xs ys zs
2 3 0.0330407 0.0369343 0.0398912
4 1 0.0402457 0.0372684 0.0391698
6 1 0.0399545 0.0397502 0.0391379
5 2 0.0374881 0.0382117 0.0483564
7 3 0.0317173 0.0367718 0.0431978
10 3 0.0340341 0.0392651 0.0424106
3 2 0.0375328 0.0371859 0.0484075
8 3 0.0398287 0.0316479 0.0441724
1 3 0.0374124 0.0442779 0.0443514
9 1 0.0432173 0.0406092 0.0451185
ITEM: TIMESTEP
411
ITEM: NUMBER OF ATOMS
10
ITEM: BOX BOUNDS pp pp pp
0.0000000000000000e+00 1.5850000000000000e+02
0.0000000000000000e+00 1.5850000000000000e+02
0.0000000000000000e+00 1.5850000000000000e+02
ITEM: ATOMS id type xs ys zs
2 3 0.0330407 0.0369343 0.0398912
4 1 0.0402457 0.0372684 0.0391698
6 1 0.0399545 0.0397502 0.0391379
5 2 0.0374881 0.0382117 0.0483564
7 3 0.0317173 0.0367718 0.0431978
10 3 0.0340341 0.0392651 0.0424106
3 2 0.0375328 0.0371859 0.0484075
8 3 0.0398287 0.0316479 0.0441724
1 3 0.0374124 0.0442779 0.0443514
9 1 0.0432173 0.0406092 0.0451185
