ITEM: TIMESTEP
0
ITEM: NUMBER OF ATOMS
6
ITEM: BOX BOUNDS pp pp pp
0.0000000000000000e+00 1.5850000000000000e+02
0.0000000000000000e+00 1.5850000000000000e+02
0.0000000000000000e+00 1.5850000000000000e+02
ITEM: ATOMS id type xs ys zs
2 2 0.00529854 0.014695 0.0381415
3 3 0.00792527 0.0183981 0.0297142
4 3 0.0115656 0.0273043 0.0309033
1 1 0.00164293 0.00598696 0.0370237
5 2 0.0147109 0.030736 0.0225367
6 1 0.018678 0.0394221 0.0237463
ITEM: TIMESTEP
38
ITEM: NUMBER OF ATOMS
6
ITEM: BOX BOUNDS pp pp pp
0.0000000000000000e+00 1.5850000000000000e+02
0.0000000000000000e+00 1.5850000000000000e+02
0.0000000000000000e+00 1.5850000000000000e+02
ITEM: ATOMS id type xs ys zs
2 2 0.0052255 0.0148162 0.0382111
3 3 0.00804635 0.0183805 0.0296953
4 3 0.0117992 0.0271797 0.0309801
1 1 0.00155209 0.0059761 0.0369549
5 2 0.0146794 0.0307117 0.0224687
6 1 0.0185187 0.0394783 0.0237555
ITEM: TIMESTEP
100
ITEM: NUMBER OF ATOMS
6
ITEM: BOX BOUNDS pp pp pp
0.0000000000000000e+00 1.5850000000000000e+02
0.0000000000000000e+00 1.5850000000000000e+02
0.0000000000000000e+00 1.5850000000000000e+02
ITEM: ATOMS id type xs ys zs
2 2 0.00540319 0.0158604 0.0399078
3 3 0.00926378 0.0179875 0.031181
4 3 0.0123424 0.0271514 0.031036
1 1 0.00201644 0.00707259 0.0389027
5 2 0.0146088 0.0298561 0.0221389
6 1 0.0186111 0.0388212 0.0215649
ITEM: TIMESTEP
200
ITEM: NUMBER OF ATOMS
6
ITEM: BOX BOUNDS pp pp pp
0.0000000000000000e+00 1.5850000000000000e+02
0.0000000000000000e+00 1.5850000000000000e+02
0.0000000000000000e+00 1.5850000000000000e+02
ITEM: ATOMS id type xs ys zs
2 2 0.0071913 0.0181327 0.0417108
3 3 0.00936156 0.0182809 0.0323947
4 3 0.0125622 0.0273234 0.0303533
1 1 0.00357331 0.00941685 0.0442643
5 2 0.0163878 0.0274165 0.021261
6 1 0.0178569 0.0365782 0.0199012
ITEM: TIMESTEP
300
ITEM: NUMBER OF ATOMS
6
ITEM: BOX BOUNDS pp pp pp
0.0000000000000000e+00 1.5850000000000000e+02
0.0000000000000000e+00 1.5850000000000000e+02
0.0000000000000000e+00 1.5850000000000000e+02
ITEM: ATOMS id type xs ys zs
2 2 0.00757095 0.0211711 0.0441306
3 3 0.011501 0.0193929 0.0352743
4 3 0.0131225 0.0274971 0.0302273
1 1 0.00730794 0.0130442 0.0490442
5 2 0.0153313 0.0243011 0.0215452
6 1 0.0185186 0.0322892 0.0167216
ITEM: TIMESTEP
400
ITEM: NUMBER OF ATOMS
6
ITEM: BOX BOUNDS pp pp pp
0.0000000000000000e+00 1.5850000000000000e+02
0.0000000000000000e+00 1.5850000000000000e+02
0.0000000000000000e+00 1.5850000000000000e+02
ITEM: ATOMS id type xs ys zs
2 2 0.0103137 0.0240597 0.0453316
3 3 0.012301 0.0194442 0.0373752
4 3 0.0130763 0.0260356 0.0305066
1 1 0.00908403 0.0173052 0.0522963
5 2 0.0166484 0.0224134 0.0220834
6 1 0.0170245 0.0288717 0.0149532
ITEM: TIMESTEP
500
ITEM: NUMBER OF ATOMS
6
ITEM: BOX BOUNDS pp pp pp
0.0000000000000000e+00 1.5850000000000000e+02
0.0000000000000000e+00 1.5850000000000000e+02
0.0000000000000000e+00 1.5850000000000000e+02
ITEM: ATOMS id type xs ys zs
2 2 0.0108257 0.0254296 0.0460596
3 3 0.0140453 0.0203537 0.038387
4 3 0.0143627 0.0259133 0.0305231
1 1 0.0107458 0.0203092 0.0539937
5 2 0.0159318 0.0205243 0.0228343
6 1 0.0160496 0.0258991 0.0146109
ITEM: TIMESTEP
600
ITEM: NUMBER OF ATOMS
6
ITEM: BOX BOUNDS pp pp pp
0.0000000000000000e+00 1.5850000000000000e+02
0.0000000000000000e+00 1.5850000000000000e+02
0.0000000000000000e+00 1.5850000000000000e+02
ITEM: ATOMS id type xs ys zs
2 2 0.0131711 0.027539 0.0463833
3 3 0.0144781 0.0213282 0.0392534
4 3 0.0133745 0.0254492 0.0304653
1 1 0.0131829 0.0236637 0.0554047
5 2 0.0163568 0.0186185 0.0240467
6 1 0.0155113 0.0221813 0.0153786
ITEM: TIMESTEP
700
ITEM: NUMBER OF ATOMS
6
ITEM: BOX BOUNDS pp pp pp
0.0000000000000000e+00 1.5850000000000000e+02
0.0000000000000000e+00 1.5850000000000000e+02
0.0000000000000000e+00 1.5850000000000000e+02
ITEM: ATOMS id type xs ys zs
2 2 0.014127 0.0299333 0.0458779
3 3 0.0159915 0.021607 0.0411296
4 3 0.0147313 0.0239832 0.0318696
1 1 0.0168269 0.0289505 0.0549257
5 2 0.0154155 0.0162088 0.0263344
6 1 0.0143822 0.0185574 0.0167318
ITEM: TIMESTEP
800
ITEM: NUMBER OF ATOMS
6
ITEM: BOX BOUNDS pp pp pp
0.0000000000000000e+00 1.5850000000000000e+02
0.0000000000000000e+00 1.5850000000000000e+02
0.0000000000000000e+00 1.5850000000000000e+02
ITEM: ATOMS id type xs ys zs
2 2 0.0168673 0.0324962 0.0448986
3 3 0.0176443 0.02368 0.0416191
4 3 0.0143328 0.0235866 0.0327365
1 1 0.0193218 0.0318639 0.0543368
5 2 0.0158511 0.0146692 0.0292115
6 1 0.0129433 0.0134118 0.0200988
ITEM: TIMESTEP
900
ITEM: NUMBER OF ATOMS
6
ITEM: BOX BOUNDS pp pp pp
0.0000000000000000e+00 1.5850000000000000e+02
0.0000000000000000e+00 1.5850000000000000e+02
0.0000000000000000e+00 1.5850000000000000e+02
ITEM: ATOMS id type xs ys zs
2 2 0.017829 0.033197 0.0444087
3 3 0.0189537 0.0238614 0.0420945
4 3 0.0154121 0.0223389 0.0332886
1 1 0.0212864 0.0357734 0.0529684
5 2 0.0157754 0.0130308 0.03151
6 1 0.0116337 0.0118411 0.0229521
ITEM: TIMESTEP
1000
ITEM: NUMBER OF ATOMS
6
ITEM: BOX BOUNDS pp pp pp
0.0000000000000000e+00 1.5850000000000000e+02
0.0000000000000000e+00 1.5850000000000000e+02
0.0000000000000000e+00 1.5850000000000000e+02
ITEM: ATOMS id type xs ys zs
2 2 0.0191143 0.0344502 0.0434568
3 3 0.0192602 0.0248107 0.0425056
4 3 0.0147089 0.0221687 0.0342773
1 1 0.0234914 0.0371284 0.0516385
5 2 0.0157475 0.0125759 0.0334007
6 1 0.0117516 0.00918014 0.0254437
ITEM: TIMESTEP
1100
ITEM: NUMBER OF ATOMS
6
ITEM: BOX BOUNDS pp pp pp
0.0000000000000000e+00 1.5850000000000000e+02
0.0000000000000000e+00 1.5850000000000000e+02
0.0000000000000000e+00 1.5850000000000000e+02
ITEM: ATOMS id type xs ys zs
4 3 0.0155945 0.0216373 0.0357536
5 2 0.0153744 0.0119047 0.0360502
6 1 0.0111569 0.00756426 0.0283718
2 2 0.0200113 0.0350106 0.0420789
3 3 0.020449 0.0253341 0.0433487
1 1 0.0251698 0.0391769 0.049168
ITEM: TIMESTEP
1200
ITEM: NUMBER OF ATOMS
6
ITEM: BOX BOUNDS pp pp pp
0.0000000000000000e+00 1.5850000000000000e+02
0.0000000000000000e+00 1.5850000000000000e+02
0.0000000000000000e+00 1.5850000000000000e+02
ITEM: ATOMS id type xs ys zs
4 3 0.0162574 0.0209159 0.0364351
5 2 0.0160193 0.0118175 0.0394194
6 1 0.0104195 0.0066345 0.0334422
2 2 0.0217883 0.0351274 0.0402846
3 3 0.0212433 0.0258149 0.0430443
1 1 0.0263552 0.0406864 0.0469034
ITEM: TIMESTEP
1300
ITEM: NUMBER OF ATOMS
6
ITEM: BOX BOUNDS pp pp pp
0.0000000000000000e+00 1.5850000000000000e+02
0.0000000000000000e+00 1.5850000000000000e+02
0.0000000000000000e+00 1.5850000000000000e+02
ITEM: ATOMS id type xs ys zs
4 3 0.0166788 0.0202912 0.0381455
5 2 0.0161005 0.0124756 0.0436082
6 1 0.0110483 0.00631362 0.0386398
2 2 0.0229423 0.0346977 0.0383852
3 3 0.0223387 0.0263855 0.0430023
1 1 0.0280309 0.0412639 0.0433077
ITEM: TIMESTEP
1400
ITEM: NUMBER OF ATOMS
6
ITEM: BOX BOUNDS pp pp pp
0.0000000000000000e+00 1.5850000000000000e+02
0.0000000000000000e+00 1.5850000000000000e+02
0.0000000000000000e+00 1.5850000000000000e+02
ITEM: ATOMS id type xs ys zs
4 3 0.0178549 0.0202746 0.0404911
5 2 0.0169654 0.0135019 0.0471193
6 1 0.0114305 0.00616806 0.0440668
2 2 0.0238314 0.0336455 0.0362071
3 3 0.0229242 0.0277804 0.0438343
1 1 0.0294649 0.0405115 0.0392325
ITEM: TIMESTEP
1500
ITEM: NUMBER OF ATOMS
6
ITEM: BOX BOUNDS pp pp pp
0.0000000000000000e+00 1.5850000000000000e+02
0.0000000000000000e+00 1.5850000000000000e+02
0.0000000000000000e+00 1.5850000000000000e+02
ITEM: ATOMS id type xs ys zs
4 3 0.0181511 0.0199135 0.0416865
5 2 0.0172907 0.0150985 0.0502206
6 1 0.0124336 0.00686994 0.0489531
2 2 0.0246075 0.0325056 0.0349622
3 3 0.0239046 0.0275196 0.043103
1 1 0.0302942 0.0403337 0.0366551
ITEM: TIMESTEP
1600
ITEM: NUMBER OF ATOMS
6
ITEM: BOX BOUNDS pp pp pp
0.0000000000000000e+00 1.5850000000000000e+02
0.0000000000000000e+00 1.5850000000000000e+02
0.0000000000000000e+00 1.5850000000000000e+02
ITEM: ATOMS id type xs ys zs
4 3 0.01922 0.019411 0.0433133
5 2 0.0183233 0.0160974 0.0522685
6 1 0.0124426 0.00821311 0.0517453
2 2 0.0254469 0.0313315 0.0343796
3 3 0.0242049 0.0277117 0.0434565
1 1 0.0301583 0.0397415 0.0338418
ITEM: TIMESTEP
1700
ITEM: NUMBER OF ATOMS
6
ITEM: BOX BOUNDS pp pp pp
0.0000000000000000e+00 1.5850000000000000e+02
0.0000000000000000e+00 1.5850000000000000e+02
0.0000000000000000e+00 1.5850000000000000e+02
ITEM: ATOMS id type xs ys zs
4 3 0.0198301 0.0194744 0.0443038
5 2 0.0184606 0.0180353 0.0539732
6 1 0.0142309 0.00984313 0.0561897
2 2 0.0256676 0.0297119 0.0334867
3 3 0.0248357 0.0276852 0.0426676
1 1 0.0304579 0.0380705 0.0324374
ITEM: TIMESTEP
1800
ITEM: NUMBER OF ATOMS
6
ITEM: BOX BOUNDS pp pp pp
0.0000000000000000e+00 1.5850000000000000e+02
0.0000000000000000e+00 1.5850000000000000e+02
0.0000000000000000e+00 1.5850000000000000e+02
ITEM: ATOMS id type xs ys zs
4 3 0.0211123 0.0206412 0.0468873
5 2 0.0201595 0.0209134 0.0563377
6 1 0.0164719 0.0124409 0.0597458
2 2 0.0263313 0.0265547 0.0335324
3 3 0.0247053 0.0286314 0.0428575
1 1 0.0300301 0.0340928 0.0295555
ITEM: TIMESTEP
1900
ITEM: NUMBER OF ATOMS
6
ITEM: BOX BOUNDS pp pp pp
0.0000000000000000e+00 1.5850000000000000e+02
0.0000000000000000e+00 1.5850000000000000e+02
0.0000000000000000e+00 1.5850000000000000e+02
ITEM: ATOMS id type xs ys zs
4 3 0.0228477 0.0197906 0.0488079
5 2 0.0214012 0.024274 0.0574176
6 1 0.0189648 0.0172174 0.0633641
2 2 0.0261921 0.0240024 0.033861
3 3 0.0253203 0.0267984 0.0428518
1 1 0.0293025 0.0316364 0.0283516
ITEM: TIMESTEP
2000
ITEM: NUMBER OF ATOMS
6
ITEM: BOX BOUNDS pp pp pp
0.0000000000000000e+00 1.5850000000000000e+02
0.0000000000000000e+00 1.5850000000000000e+02
0.0000000000000000e+00 1.5850000000000000e+02
ITEM: ATOMS id type xs ys zs
4 3 0.0236717 0.0214106 0.0503576
5 2 0.0231303 0.0264511 0.058421
6 1 0.0209323 0.019836 0.0654312
2 2 0.0269976 0.0217325 0.0349378
3 3 0.0257725 0.0272123 0.04299
1 1 0.0279049 0.0274502 0.0273329
ITEM: TIMESTEP
2100
ITEM: NUMBER OF ATOMS
6
ITEM: BOX BOUNDS pp pp pp
0.0000000000000000e+00 1.5850000000000000e+02
0.0000000000000000e+00 1.5850000000000000e+02
0.0000000000000000e+00 1.5850000000000000e+02
ITEM: ATOMS id type xs ys zs
4 3 0.0253728 0.0217894 0.0513794
5 2 0.0239939 0.0280264 0.0588788
6 1 0.02327 0.0238367 0.0673323
2 2 0.0263248 0.0197103 0.0357919
3 3 0.0257358 0.0262448 0.0426857
1 1 0.0275987 0.0248162 0.027676
ITEM: TIMESTEP
2200
ITEM: NUMBER OF ATOMS
6
ITEM: BOX BOUNDS pp pp pp
0.0000000000000000e+00 1.5850000000000000e+02
0.0000000000000000e+00 1.5850000000000000e+02
0.0000000000000000e+00 1.5850000000000000e+02
ITEM: ATOMS id type xs ys zs
2 2 0.0270968 0.0179034 0.0373169
1 1 0.0264899 0.020718 0.0282484
4 3 0.0256735 0.0227871 0.0530313
5 2 0.0255221 0.030419 0.0586457
6 1 0.0265728 0.0276248 0.0678965
3 3 0.0255207 0.0253618 0.0436407
ITEM: TIMESTEP
2300
ITEM: NUMBER OF ATOMS
6
ITEM: BOX BOUNDS pp pp pp
0.0000000000000000e+00 1.5850000000000000e+02
0.0000000000000000e+00 1.5850000000000000e+02
0.0000000000000000e+00 1.5850000000000000e+02
ITEM: ATOMS id type xs ys zs
2 2 0.0265266 0.0155886 0.0409987
1 1 0.024482 0.0151752 0.0312184
4 3 0.0292824 0.0246929 0.0537652
5 2 0.0271302 0.0332106 0.0579922
6 1 0.029651 0.0321368 0.0671318
3 3 0.02616 0.0245517 0.0446625
ITEM: TIMESTEP
2400
ITEM: NUMBER OF ATOMS
6
ITEM: BOX BOUNDS pp pp pp
0.0000000000000000e+00 1.5850000000000000e+02
0.0000000000000000e+00 1.5850000000000000e+02
0.0000000000000000e+00 1.5850000000000000e+02
ITEM: ATOMS id type xs ys zs
2 2 0.0278188 0.0138117 0.0436538
1 1 0.0227425 0.0127266 0.0355453
4 3 0.0299484 0.0248981 0.054733
5 2 0.0293077 0.0343595 0.0564118
6 1 0.0324527 0.0368098 0.0653471
3 3 0.0262721 0.0232026 0.0459163
ITEM: TIMESTEP
2500
ITEM: NUMBER OF ATOMS
6
ITEM: BOX BOUNDS pp pp pp
0.0000000000000000e+00 1.5850000000000000e+02
0.0000000000000000e+00 1.5850000000000000e+02
0.0000000000000000e+00 1.5850000000000000e+02
ITEM: ATOMS id type xs ys zs
2 2 0.0268783 0.0133837 0.0470518
1 1 0.0233143 0.00979687 0.0388722
4 3 0.0309983 0.0260885 0.0545536
5 2 0.0299994 0.0356188 0.0557962
6 1 0.0353808 0.0382935 0.0631434
3 3 0.0260958 0.0229787 0.0467253
ITEM: TIMESTEP
2600
ITEM: NUMBER OF ATOMS
6
ITEM: BOX BOUNDS pp pp pp
0.0000000000000000e+00 1.5850000000000000e+02
0.0000000000000000e+00 1.5850000000000000e+02
0.0000000000000000e+00 1.5850000000000000e+02
ITEM: ATOMS id type xs ys zs
2 2 0.0274428 0.0126401 0.0492893
1 1 0.0220816 0.00836664 0.0424798
4 3 0.0320265 0.0266509 0.0559865
5 2 0.0318797 0.0358488 0.05359
6 1 0.0365789 0.0407169 0.0603384
3 3 0.0269006 0.0222983 0.0491242
ITEM: TIMESTEP
2700
ITEM: NUMBER OF ATOMS
6
ITEM: BOX BOUNDS pp pp pp
0.0000000000000000e+00 1.5850000000000000e+02
0.0000000000000000e+00 1.5850000000000000e+02
0.0000000000000000e+00 1.5850000000000000e+02
ITEM: ATOMS id type xs ys zs
2 2 0.0273993 0.0130049 0.0534152
1 1 0.0217634 0.00674447 0.0484863
4 3 0.0332791 0.0271043 0.0548129
5 2 0.0328613 0.0364082 0.0523632
6 1 0.0385513 0.0420323 0.0579398
3 3 0.0279312 0.0216428 0.0491514
ITEM: TIMESTEP
2800
ITEM: NUMBER OF ATOMS
6
ITEM: BOX BOUNDS pp pp pp
0.0000000000000000e+00 1.5850000000000000e+02
0.0000000000000000e+00 1.5850000000000000e+02
0.0000000000000000e+00 1.5850000000000000e+02
ITEM: ATOMS id type xs ys zs
2 2 0.0284993 0.0132285 0.0572692
1 1 0.0221107 0.00682252 0.0538156
4 3 0.034158 0.0275676 0.0557192
5 2 0.0347513 0.0354864 0.049968
6 1 0.0400776 0.0429634 0.0532602
3 3 0.0276628 0.0213352 0.0521557
ITEM: TIMESTEP
2900
ITEM: NUMBER OF ATOMS
6
ITEM: BOX BOUNDS pp pp pp
0.0000000000000000e+00 1.5850000000000000e+02
0.0000000000000000e+00 1.5850000000000000e+02
0.0000000000000000e+00 1.5850000000000000e+02
ITEM: ATOMS id type xs ys zs
2 2 0.0287937 0.014948 0.0610922
1 1 0.0231921 0.00737519 0.0596152
4 3 0.0352604 0.0285429 0.0557693
5 2 0.0345401 0.0346354 0.0483953
6 1 0.0415674 0.0411386 0.0494536
3 3 0.0291719 0.0212124 0.053652
ITEM: TIMESTEP
3000
ITEM: NUMBER OF ATOMS
6
ITEM: BOX BOUNDS pp pp pp
0.0000000000000000e+00 1.5850000000000000e+02
0.0000000000000000e+00 1.5850000000000000e+02
0.0000000000000000e+00 1.5850000000000000e+02
ITEM: ATOMS id type xs ys zs
2 2 0.0302131 0.016438 0.0634291
1 1 0.0239188 0.00905707 0.0637993
4 3 0.0359384 0.0283129 0.0554997
5 2 0.0355967 0.0327647 0.0468969
6 1 0.0415119 0.0402455 0.0473339
3 3 0.0293433 0.0213749 0.055413
ITEM: TIMESTEP
3100
ITEM: NUMBER OF ATOMS
6
ITEM: BOX BOUNDS pp pp pp
0.0000000000000000e+00 1.5850000000000000e+02
0.0000000000000000e+00 1.5850000000000000e+02
0.0000000000000000e+00 1.5850000000000000e+02
ITEM: ATOMS id type xs ys zs
2 2 0.0309775 0.0182029 0.0659101
1 1 0.0246651 0.0111839 0.0668218
4 3 0.0365297 0.0280212 0.0555552
5 2 0.0355711 0.0314722 0.0467289
6 1 0.0416393 0.0390323 0.0447162
3 3 0.0307411 0.0205876 0.0565999
ITEM: TIMESTEP
3200
ITEM: NUMBER OF ATOMS
6
ITEM: BOX BOUNDS pp pp pp
0.0000000000000000e+00 1.5850000000000000e+02
0.0000000000000000e+00 1.5850000000000000e+02
0.0000000000000000e+00 1.5850000000000000e+02
ITEM: ATOMS id type xs ys zs
2 2 0.0322612 0.0203398 0.0676592
1 1 0.0267634 0.013298 0.0716875
4 3 0.0366636 0.0284957 0.0554157
5 2 0.0364701 0.0290277 0.0455607
3 3 0.0308126 0.0213444 0.058307
6 1 0.04182 0.0363922 0.0428335
ITEM: TIMESTEP
3300
ITEM: NUMBER OF ATOMS
6
ITEM: BOX BOUNDS pp pp pp
0.0000000000000000e+00 1.5850000000000000e+02
0.0000000000000000e+00 1.5850000000000000e+02
0.0000000000000000e+00 1.5850000000000000e+02
ITEM: ATOMS id type xs ys zs
2 2 0.0330311 0.0238118 0.0703055
1 1 0.0294261 0.0168957 0.0756896
4 3 0.0378103 0.0287858 0.0551517
5 2 0.0361616 0.0260736 0.0461477
3 3 0.0330526 0.0219746 0.0605007
6 1 0.0412312 0.0318609 0.0401798
ITEM: TIMESTEP
3400
ITEM: NUMBER OF ATOMS
6
ITEM: BOX BOUNDS pp pp pp
0.0000000000000000e+00 1.5850000000000000e+02
0.0000000000000000e+00 1.5850000000000000e+02
0.0000000000000000e+00 1.5850000000000000e+02
ITEM: ATOMS id type xs ys zs
2 2 0.0356616 0.0267044 0.0707031
1 1 0.0317027 0.0219096 0.0783172
4 3 0.0372888 0.0275007 0.0555594
5 2 0.0371583 0.0231239 0.0467241
3 3 0.0339913 0.0218264 0.0627108
6 1 0.0400395 0.0287746 0.0396003
ITEM: TIMESTEP
3500
ITEM: NUMBER OF ATOMS
6
ITEM: BOX BOUNDS pp pp pp
0.0000000000000000e+00 1.5850000000000000e+02
0.0000000000000000e+00 1.5850000000000000e+02
0.0000000000000000e+00 1.5850000000000000e+02
ITEM: ATOMS id type xs ys zs
2 2 0.0362344 0.0295642 0.0711678
1 1 0.0341731 0.0248039 0.0791552
4 3 0.0384964 0.0270473 0.0557225
5 2 0.0366109 0.0210604 0.0486723
3 3 0.0358599 0.0229961 0.0639312
6 1 0.0388243 0.0247391 0.0397563
ITEM: TIMESTEP
3600
ITEM: NUMBER OF ATOMS
6
ITEM: BOX BOUNDS pp pp pp
0.0000000000000000e+00 1.5850000000000000e+02
0.0000000000000000e+00 1.5850000000000000e+02
0.0000000000000000e+00 1.5850000000000000e+02
ITEM: ATOMS id type xs ys zs
2 2 0.0384891 0.031111 0.070636
1 1 0.0367653 0.0291184 0.0801561
4 3 0.0371602 0.0264406 0.0557271
5 2 0.0372324 0.0184405 0.0502305
3 3 0.0367489 0.0236685 0.0649391
6 1 0.0382334 0.0218095 0.0415876
ITEM: TIMESTEP
3700
ITEM: NUMBER OF ATOMS
6
ITEM: BOX BOUNDS pp pp pp
0.0000000000000000e+00 1.5850000000000000e+02
0.0000000000000000e+00 1.5850000000000000e+02
0.0000000000000000e+00 1.5850000000000000e+02
ITEM: ATOMS id type xs ys zs
2 2 0.0384137 0.0337369 0.0703782
1 1 0.0403213 0.0323451 0.0795407
4 3 0.0384007 0.0256091 0.0564941
5 2 0.0367888 0.0170069 0.0528059
3 3 0.0383433 0.0247833 0.0662317
6 1 0.0371494 0.0175153 0.0430904
ITEM: TIMESTEP
3800
ITEM: NUMBER OF ATOMS
6
ITEM: BOX BOUNDS pp pp pp
0.0000000000000000e+00 1.5850000000000000e+02
0.0000000000000000e+00 1.5850000000000000e+02
0.0000000000000000e+00 1.5850000000000000e+02
ITEM: ATOMS id type xs ys zs
2 2 0.0413059 0.0353849 0.0687926
1 1 0.0420667 0.0363472 0.0785637
4 3 0.0377642 0.0246822 0.0581075
5 2 0.0381197 0.0152977 0.0551996
3 3 0.0403042 0.0259746 0.0673591
6 1 0.0350529 0.0137529 0.0462321
ITEM: TIMESTEP
3900
ITEM: NUMBER OF ATOMS
6
ITEM: BOX BOUNDS pp pp pp
0.0000000000000000e+00 1.5850000000000000e+02
0.0000000000000000e+00 1.5850000000000000e+02
0.0000000000000000e+00 1.5850000000000000e+02
ITEM: ATOMS id type xs ys zs
2 2 0.0413641 0.0363746 0.0681236
1 1 0.045442 0.0400471 0.0760916
4 3 0.0389121 0.0234723 0.0588662
5 2 0.0377095 0.0140577 0.0591063
3 3 0.0420892 0.0266451 0.0672798
6 1 0.0341894 0.0112766 0.0503865
ITEM: TIMESTEP
4000
ITEM: NUMBER OF ATOMS
6
ITEM: BOX BOUNDS pp pp pp
0.0000000000000000e+00 1.5850000000000000e+02
0.0000000000000000e+00 1.5850000000000000e+02
0.0000000000000000e+00 1.5850000000000000e+02
ITEM: ATOMS id type xs ys zs
2 2 0.0432744 0.0370995 0.0662824
1 1 0.0476625 0.0412454 0.0739018
4 3 0.0376151 0.0232915 0.0603951
5 2 0.0387285 0.0137407 0.0615965
3 3 0.0422932 0.0276929 0.0675622
6 1 0.0342181 0.00915184 0.0546084
ITEM: TIMESTEP
4100
ITEM: NUMBER OF ATOMS
6
ITEM: BOX BOUNDS pp pp pp
0.0000000000000000e+00 1.5850000000000000e+02
0.0000000000000000e+00 1.5850000000000000e+02
0.0000000000000000e+00 1.5850000000000000e+02
ITEM: ATOMS id type xs ys zs
2 2 0.0432283 0.0371988 0.0652682
1 1 0.0487742 0.0424816 0.0707958
4 3 0.0390698 0.0228199 0.0619479
5 2 0.0382985 0.0135345 0.0644791
3 3 0.0444101 0.0280594 0.0681433
6 1 0.0335903 0.0084326 0.0576475
ITEM: TIMESTEP
4200
ITEM: NUMBER OF ATOMS
6
ITEM: BOX BOUNDS pp pp pp
0.0000000000000000e+00 1.5850000000000000e+02
0.0000000000000000e+00 1.5850000000000000e+02
0.0000000000000000e+00 1.5850000000000000e+02
ITEM: ATOMS id type xs ys zs
4 3 0.0388651 0.0225186 0.0626717
5 2 0.039933 0.0139355 0.0672235
6 1 0.0333193 0.00766339 0.0638613
2 2 0.0449859 0.0371406 0.0631544
3 3 0.0444468 0.0286507 0.0675981
1 1 0.0503676 0.0430055 0.068772
ITEM: TIMESTEP
4300
ITEM: NUMBER OF ATOMS
6
ITEM: BOX BOUNDS pp pp pp
0.0000000000000000e+00 1.5850000000000000e+02
0.0000000000000000e+00 1.5850000000000000e+02
0.0000000000000000e+00 1.5850000000000000e+02
ITEM: ATOMS id type xs ys zs
4 3 0.0397697 0.0219919 0.0657904
5 2 0.040397 0.0148553 0.0722953
6 1 0.0337563 0.00843024 0.069264
2 2 0.0455442 0.0361695 0.0618897
3 3 0.0466743 0.0284439 0.0675503
1 1 0.0518365 0.0435399 0.0631545
ITEM: TIMESTEP
4400
ITEM: NUMBER OF ATOMS
6
ITEM: BOX BOUNDS pp pp pp
0.0000000000000000e+00 1.5850000000000000e+02
0.0000000000000000e+00 1.5850000000000000e+02
0.0000000000000000e+00 1.5850000000000000e+02
ITEM: ATOMS id type xs ys zs
4 3 0.0402106 0.0225376 0.0677609
5 2 0.041779 0.0162376 0.0749221
6 1 0.0350192 0.009332 0.075703
2 2 0.0460359 0.0350666 0.0599277
3 3 0.0469485 0.0295826 0.0678378
1 1 0.0532879 0.0411264 0.0596238
ITEM: TIMESTEP
4500
ITEM: NUMBER OF ATOMS
6
ITEM: BOX BOUNDS pp pp pp
0.0000000000000000e+00 1.5850000000000000e+02
0.0000000000000000e+00 1.5850000000000000e+02
0.0000000000000000e+00 1.5850000000000000e+02
ITEM: ATOMS id type xs ys zs
4 3 0.0411154 0.0227582 0.0693966
5 2 0.0426649 0.0183053 0.0780049
6 1 0.036098 0.0116642 0.0800813
2 2 0.0461645 0.0332998 0.0590951
3 3 0.0485494 0.0287128 0.0671693
1 1 0.0531985 0.0395268 0.0569864
ITEM: TIMESTEP
4600
ITEM: NUMBER OF ATOMS
6
ITEM: BOX BOUNDS pp pp pp
0.0000000000000000e+00 1.5850000000000000e+02
0.0000000000000000e+00 1.5850000000000000e+02
0.0000000000000000e+00 1.5850000000000000e+02
ITEM: ATOMS id type xs ys zs
4 3 0.0420614 0.0223785 0.0710593
5 2 0.0447589 0.0202577 0.0799736
6 1 0.0371904 0.0152627 0.0836502
2 2 0.0466504 0.0309769 0.0585453
3 3 0.0487544 0.0284876 0.0678039
1 1 0.0528471 0.0372849 0.0546182
ITEM: TIMESTEP
4700
ITEM: NUMBER OF ATOMS
6
ITEM: BOX BOUNDS pp pp pp
0.0000000000000000e+00 1.5850000000000000e+02
0.0000000000000000e+00 1.5850000000000000e+02
0.0000000000000000e+00 1.5850000000000000e+02
ITEM: ATOMS id type xs ys zs
4 3 0.0427355 0.0232051 0.0724945
5 2 0.045618 0.0235401 0.0817644
6 1 0.0400444 0.0179155 0.0871048
2 2 0.0463986 0.0285139 0.0585564
3 3 0.0492035 0.0282447 0.0676147
1 1 0.0530358 0.0336357 0.0533642
ITEM: TIMESTEP
4800
ITEM: NUMBER OF ATOMS
6
ITEM: BOX BOUNDS pp pp pp
0.0000000000000000e+00 1.5850000000000000e+02
0.0000000000000000e+00 1.5850000000000000e+02
0.0000000000000000e+00 1.5850000000000000e+02
ITEM: ATOMS id type xs ys zs
4 3 0.044572 0.0243686 0.0743199
5 2 0.0473383 0.0262988 0.0830896
6 1 0.0422012 0.0217912 0.0900133
2 2 0.0466535 0.0251625 0.0592742
3 3 0.0500174 0.0287941 0.0676597
1 1 0.0517052 0.0291044 0.0525366
ITEM: TIMESTEP
4900
ITEM: NUMBER OF ATOMS
6
ITEM: BOX BOUNDS pp pp pp
0.0000000000000000e+00 1.5850000000000000e+02
0.0000000000000000e+00 1.5850000000000000e+02
0.0000000000000000e+00 1.5850000000000000e+02
ITEM: ATOMS id type xs ys zs
4 3 0.0460137 0.0238583 0.076638
5 2 0.049236 0.0299616 0.0835225
6 1 0.0457316 0.0277867 0.0918773
2 2 0.0466925 0.0222896 0.060804
3 3 0.0499295 0.0270847 0.0683767
1 1 0.0509428 0.0250552 0.0523365
ITEM: TIMESTEP
5000
ITEM: NUMBER OF ATOMS
6
ITEM: BOX BOUNDS pp pp pp
0.0000000000000000e+00 1.5850000000000000e+02
0.0000000000000000e+00 1.5850000000000000e+02
0.0000000000000000e+00 1.5850000000000000e+02
ITEM: ATOMS id type xs ys zs
4 3 0.0474375 0.0256342 0.0776816
5 2 0.0510287 0.0323387 0.0833189
6 1 0.0476663 0.0309014 0.0924802
2 2 0.0472622 0.0197743 0.0629132
3 3 0.0507125 0.0270189 0.0687501
1 1 0.0490179 0.0207588 0.0534458
ITEM: TIMESTEP
5100
ITEM: NUMBER OF ATOMS
6
ITEM: BOX BOUNDS pp pp pp
0.0000000000000000e+00 1.5850000000000000e+02
0.0000000000000000e+00 1.5850000000000000e+02
0.0000000000000000e+00 1.5850000000000000e+02
ITEM: ATOMS id type xs ys zs
4 3 0.0486176 0.0255816 0.0783745
2 2 0.0467361 0.0181768 0.0649462
3 3 0.0500389 0.0261927 0.0688558
1 1 0.0492261 0.0185032 0.0554184
5 2 0.0515932 0.0338726 0.0827409
6 1 0.0505517 0.0344094 0.0922542
ITEM: TIMESTEP
5200
ITEM: NUMBER OF ATOMS
6
ITEM: BOX BOUNDS pp pp pp
0.0000000000000000e+00 1.5850000000000000e+02
0.0000000000000000e+00 1.5850000000000000e+02
0.0000000000000000e+00 1.5850000000000000e+02
ITEM: ATOMS id type xs ys zs
4 3 0.049508 0.0271484 0.0790597
2 2 0.0478601 0.0167332 0.0675623
3 3 0.0503502 0.0259891 0.0694607
1 1 0.0476262 0.0151377 0.0583549
5 2 0.0527812 0.0356469 0.0815423
6 1 0.0528176 0.0364373 0.0912059
ITEM: TIMESTEP
5300
ITEM: NUMBER OF ATOMS
6
ITEM: BOX BOUNDS pp pp pp
0.0000000000000000e+00 1.5850000000000000e+02
0.0000000000000000e+00 1.5850000000000000e+02
0.0000000000000000e+00 1.5850000000000000e+02
ITEM: ATOMS id type xs ys zs
4 3 0.0529 0.0275244 0.080562
2 2 0.0481089 0.0155063 0.0713596
3 3 0.050405 0.0246641 0.0717335
1 1 0.0462594 0.012361 0.0622451
5 2 0.0536696 0.0371522 0.0795662
6 1 0.0554452 0.0403828 0.088146
ITEM: TIMESTEP
5400
ITEM: NUMBER OF ATOMS
6
ITEM: BOX BOUNDS pp pp pp
0.0000000000000000e+00 1.5850000000000000e+02
0.0000000000000000e+00 1.5850000000000000e+02
0.0000000000000000e+00 1.5850000000000000e+02
ITEM: ATOMS id type xs ys zs
4 3 0.0536106 0.0287157 0.0801563
2 2 0.0496184 0.0146897 0.0753306
3 3 0.0500937 0.0240122 0.0726282
1 1 0.0453631 0.0098136 0.0682652
5 2 0.0551384 0.0378828 0.0778756
6 1 0.0586849 0.0429643 0.0856469
ITEM: TIMESTEP
5500
ITEM: NUMBER OF ATOMS
6
ITEM: BOX BOUNDS pp pp pp
0.0000000000000000e+00 1.5850000000000000e+02
0.0000000000000000e+00 1.5850000000000000e+02
0.0000000000000000e+00 1.5850000000000000e+02
ITEM: ATOMS id type xs ys zs
4 3 0.0553506 0.0291701 0.0803193
2 2 0.0498103 0.0147917 0.0790611
3 3 0.050381 0.0231841 0.0744948
1 1 0.0453031 0.00865402 0.0730253
5 2 0.0555601 0.0382936 0.0766345
6 1 0.0610172 0.0444036 0.08177
ITEM: TIMESTEP
5600
ITEM: NUMBER OF ATOMS
6
ITEM: BOX BOUNDS pp pp pp
0.0000000000000000e+00 1.5850000000000000e+02
0.0000000000000000e+00 1.5850000000000000e+02
0.0000000000000000e+00 1.5850000000000000e+02
ITEM: ATOMS id type xs ys zs
4 3 0.0567841 0.0301857 0.0806353
2 2 0.0508389 0.0149243 0.0816914
3 3 0.050662 0.0234399 0.0769029
1 1 0.0450587 0.00829277 0.0781008
5 2 0.0565111 0.0376392 0.0745242
6 1 0.0620882 0.0444006 0.0784211
ITEM: TIMESTEP
5700
ITEM: NUMBER OF ATOMS
6
ITEM: BOX BOUNDS pp pp pp
0.0000000000000000e+00 1.5850000000000000e+02
0.0000000000000000e+00 1.5850000000000000e+02
0.0000000000000000e+00 1.5850000000000000e+02
ITEM: ATOMS id type xs ys zs
4 3 0.0576494 0.0298674 0.0796874
2 2 0.0518981 0.0163202 0.0848609
3 3 0.0514008 0.0227507 0.0777661
1 1 0.0454591 0.00923366 0.0836348
5 2 0.0565297 0.037352 0.0735736
6 1 0.0634183 0.0437344 0.0756044
ITEM: TIMESTEP
5800
ITEM: NUMBER OF ATOMS
6
ITEM: BOX BOUNDS pp pp pp
0.0000000000000000e+00 1.5850000000000000e+02
0.0000000000000000e+00 1.5850000000000000e+02
0.0000000000000000e+00 1.5850000000000000e+02
ITEM: ATOMS id type xs ys zs
4 3 0.0587998 0.029645 0.0801056
2 2 0.0537076 0.0172226 0.0879612
3 3 0.0515491 0.0235603 0.0811195
1 1 0.0460753 0.0113034 0.087797
5 2 0.0575259 0.0351146 0.0721727
6 1 0.0636275 0.0428327 0.0713915
ITEM: TIMESTEP
5900
ITEM: NUMBER OF ATOMS
6
ITEM: BOX BOUNDS pp pp pp
0.0000000000000000e+00 1.5850000000000000e+02
0.0000000000000000e+00 1.5850000000000000e+02
0.0000000000000000e+00 1.5850000000000000e+02
ITEM: ATOMS id type xs ys zs
4 3 0.0594313 0.0297698 0.0794703
2 2 0.0547933 0.0203063 0.0911706
3 3 0.0525206 0.0235478 0.0822476
1 1 0.0486284 0.0136649 0.0945352
5 2 0.0569151 0.0342952 0.0713854
6 1 0.0650279 0.0386087 0.0683701
ITEM: TIMESTEP
6000
ITEM: NUMBER OF ATOMS
6
ITEM: BOX BOUNDS pp pp pp
0.0000000000000000e+00 1.5850000000000000e+02
0.0000000000000000e+00 1.5850000000000000e+02
0.0000000000000000e+00 1.5850000000000000e+02
ITEM: ATOMS id type xs ys zs
4 3 0.060924 0.029601 0.0797352
2 2 0.0567102 0.0220146 0.0934727
3 3 0.0538768 0.0250119 0.0847379
1 1 0.0496527 0.017384 0.0982689
5 2 0.0576187 0.0305815 0.0706873
6 1 0.0636655 0.0360369 0.0659192
ITEM: TIMESTEP
6100
ITEM: NUMBER OF ATOMS
6
ITEM: BOX BOUNDS pp pp pp
0.0000000000000000e+00 1.5850000000000000e+02
0.0000000000000000e+00 1.5850000000000000e+02
0.0000000000000000e+00 1.5850000000000000e+02
ITEM: ATOMS id type xs ys zs
4 3 0.0606356 0.0283289 0.0798616
2 2 0.0579492 0.0248485 0.0947153
3 3 0.0544227 0.0238799 0.0856949
1 1 0.0517702 0.0207096 0.100743
5 2 0.0573929 0.0296013 0.0709589
6 1 0.063953 0.0335751 0.0648889
ITEM: TIMESTEP
6200
ITEM: NUMBER OF ATOMS
6
ITEM: BOX BOUNDS pp pp pp
0.0000000000000000e+00 1.5850000000000000e+02
0.0000000000000000e+00 1.5850000000000000e+02
0.0000000000000000e+00 1.5850000000000000e+02
ITEM: ATOMS id type xs ys zs
4 3 0.0612141 0.0288781 0.0802405
5 2 0.057608 0.0266571 0.0714954
6 1 0.0629584 0.0301988 0.0643162
2 2 0.0596025 0.0263844 0.0955247
3 3 0.0553126 0.0257931 0.0870183
1 1 0.0532645 0.0233587 0.102486
ITEM: TIMESTEP
6300
ITEM: NUMBER OF ATOMS
6
ITEM: BOX BOUNDS pp pp pp
0.0000000000000000e+00 1.5850000000000000e+02
0.0000000000000000e+00 1.5850000000000000e+02
0.0000000000000000e+00 1.5850000000000000e+02
ITEM: ATOMS id type xs ys zs
4 3 0.0620178 0.02766 0.0801317
5 2 0.0567083 0.0249372 0.0728173
6 1 0.0625044 0.0259992 0.0651544
2 2 0.0606553 0.0298335 0.0961052
3 3 0.0566383 0.0259929 0.0879825
1 1 0.0562683 0.0272594 0.104203
ITEM: TIMESTEP
6400
ITEM: NUMBER OF ATOMS
6
ITEM: BOX BOUNDS pp pp pp
0.0000000000000000e+00 1.5850000000000000e+02
0.0000000000000000e+00 1.5850000000000000e+02
0.0000000000000000e+00 1.5850000000000000e+02
ITEM: ATOMS id type xs ys zs
4 3 0.0618085 0.0275047 0.0811291
5 2 0.0572527 0.0215698 0.0747735
6 1 0.0612493 0.022261 0.0662848
2 2 0.0632984 0.0317376 0.0957471
3 3 0.0576649 0.0268149 0.0899191
1 1 0.0587701 0.0322417 0.104315
ITEM: TIMESTEP
6500
ITEM: NUMBER OF ATOMS
6
ITEM: BOX BOUNDS pp pp pp
0.0000000000000000e+00 1.5850000000000000e+02
0.0000000000000000e+00 1.5850000000000000e+02
0.0000000000000000e+00 1.5850000000000000e+02
ITEM: ATOMS id type xs ys zs
4 3 0.0629176 0.0261104 0.0821123
5 2 0.0572314 0.0199672 0.0775974
6 1 0.0596577 0.0183521 0.068113
2 2 0.0644644 0.0349575 0.0949595
3 3 0.0594786 0.0275578 0.0909728
1 1 0.0612178 0.0356042 0.103827
ITEM: TIMESTEP
6600
ITEM: NUMBER OF ATOMS
6
ITEM: BOX BOUNDS pp pp pp
0.0000000000000000e+00 1.5850000000000000e+02
0.0000000000000000e+00 1.5850000000000000e+02
0.0000000000000000e+00 1.5850000000000000e+02
ITEM: ATOMS id type xs ys zs
4 3 0.0619059 0.0261971 0.0822809
5 2 0.057473 0.0176534 0.0803851
6 1 0.0595188 0.0154085 0.0713459
2 2 0.06577 0.0358509 0.093943
3 3 0.060497 0.0283196 0.0915153
1 1 0.0643477 0.0395071 0.103109
ITEM: TIMESTEP
6700
ITEM: NUMBER OF ATOMS
6
ITEM: BOX BOUNDS pp pp pp