ITEM: TIMESTEP
0
ITEM: NUMBER OF ATOMS
4
ITEM: BOX BOUNDS pp pp pp
0.0000000000000000e+00 1.5850000000000000e+02
0.0000000000000000e+00 1.5850000000000000e+02
0.0000000000000000e+00 1.5850000000000000e+02
ITEM: ATOMS id type xs ys zs
4 3 0.00245412 0.0339933 0.0228256
3 3 0.995201 0.0296221 0.0183137
2 2 0.996844 0.0202197 0.0190998
1 1 0.989262 0.0150134 0.0159611
ITEM: TIMESTEP
100
ITEM: NUMBER OF ATOMS
4
ITEM: BOX BOUNDS pp pp pp
0.0000000000000000e+00 1.5850000000000000e+02
0.0000000000000000e+00 1.5850000000000000e+02
0.0000000000000000e+00 1.5850000000000000e+02
ITEM: ATOMS id type xs ys zs
4 3 0.00257741 0.0342833 0.0225025
3 3 0.995134 0.0294576 0.0186953
2 2 0.996746 0.0199666 0.0194048
1 1 0.989303 0.0151409 0.0155976
ITEM: TIMESTEP
124
ITEM: NUMBER OF ATOMS
4
ITEM: BOX BOUNDS pp pp pp
0.0000000000000000e+00 1.5850000000000000e+02
0.0000000000000000e+00 1.5850000000000000e+02
0.0000000000000000e+00 1.5850000000000000e+02
ITEM: ATOMS id type xs ys zs
4 3 0.00257741 0.0342833 0.0225025
3 3 0.995134 0.0294576 0.0186953
2 2 0.996746 0.0199666 0.0194048
1 1 0.989303 0.0151409 0.0155976
ITEM: TIMESTEP
200
ITEM: NUMBER OF ATOMS
4
ITEM: BOX BOUNDS pp pp pp
0.0000000000000000e+00 1.5850000000000000e+02
0.0000000000000000e+00 1.5850000000000000e+02
0.0000000000000000e+00 1.5850000000000000e+02
ITEM: ATOMS id type xs ys zs
4 3 0.00448755 0.0342584 0.020951
3 3 0.996658 0.02879 0.0187652
2 2 0.998523 0.019296 0.0184182
1 1 0.990259 0.014397 0.0172431
ITEM: TIMESTEP
300
ITEM: NUMBER OF ATOMS
4
ITEM: BOX BOUNDS pp pp pp
0.0000000000000000e+00 1.5850000000000000e+02
0.0000000000000000e+00 1.5850000000000000e+02
0.0000000000000000e+00 1.5850000000000000e+02
ITEM: ATOMS id type xs ys zs
4 3 0.00719682 0.0330663 0.017076
3 3 0.999694 0.0277591 0.0197125
2 2 0.00122869 0.0183839 0.0177545
1 1 0.992929 0.0137325 0.0193511
ITEM: TIMESTEP
400
ITEM: NUMBER OF ATOMS
4
ITEM: BOX BOUNDS pp pp pp
0.0000000000000000e+00 1.5850000000000000e+02
0.0000000000000000e+00 1.5850000000000000e+02
0.0000000000000000e+00 1.5850000000000000e+02
ITEM: ATOMS id type xs ys zs
4 3 0.010566 0.0306304 0.0134061
3 3 0.00430462 0.0265551 0.0194388
2 2 0.00292523 0.0177449 0.0161501
1 1 0.998131 0.0129272 0.022914
ITEM: TIMESTEP
500
ITEM: NUMBER OF ATOMS
4
ITEM: BOX BOUNDS pp pp pp
0.0000000000000000e+00 1.5850000000000000e+02
0.0000000000000000e+00 1.5850000000000000e+02
0.0000000000000000e+00 1.5850000000000000e+02
ITEM: ATOMS id type xs ys zs
4 3 0.0113852 0.0294397 0.0109521
3 3 0.0087731 0.0251996 0.0190809
2 2 0.00443806 0.0171158 0.0163842
1 1 1.00074 0.0128873 0.0242366
ITEM: TIMESTEP
600
ITEM: NUMBER OF ATOMS
4
ITEM: BOX BOUNDS pp pp pp
0.0000000000000000e+00 1.5850000000000000e+02
0.0000000000000000e+00 1.5850000000000000e+02
0.0000000000000000e+00 1.5850000000000000e+02
ITEM: ATOMS id type xs ys zs
4 3 0.0128513 0.0280577 0.00941072
3 3 0.0111955 0.0243734 0.0181497
2 2 0.00488673 0.0172598 0.0169163
1 1 0.00366666 0.0124697 0.0252079
ITEM: TIMESTEP
700
ITEM: NUMBER OF ATOMS
4
ITEM: BOX BOUNDS pp pp pp
0.0000000000000000e+00 1.5850000000000000e+02
0.0000000000000000e+00 1.5850000000000000e+02
0.0000000000000000e+00 1.5850000000000000e+02
ITEM: ATOMS id type xs ys zs
4 3 0.0138434 0.026987 0.0078688
3 3 0.014946 0.022035 0.0161391
2 2 0.00677339 0.017024 0.0178705
1 1 0.00656416 0.0128595 0.0265354
ITEM: TIMESTEP
800
ITEM: NUMBER OF ATOMS
4
ITEM: BOX BOUNDS pp pp pp
0.0000000000000000e+00 1.5850000000000000e+02
0.0000000000000000e+00 1.5850000000000000e+02
0.0000000000000000e+00 1.5850000000000000e+02
ITEM: ATOMS id type xs ys zs
4 3 0.0159505 0.0241913 0.00570285
3 3 0.0178348 0.0194621 0.0140479
2 2 0.00977037 0.017985 0.0194301
1 1 0.0114714 0.0128591 0.0275119
ITEM: TIMESTEP
900
ITEM: NUMBER OF ATOMS
4
ITEM: BOX BOUNDS pp pp pp
0.0000000000000000e+00 1.5850000000000000e+02
0.0000000000000000e+00 1.5850000000000000e+02
0.0000000000000000e+00 1.5850000000000000e+02
ITEM: ATOMS id type xs ys zs
4 3 0.0175119 0.0217089 0.00456988
3 3 0.0195039 0.0164296 0.0125546
2 2 0.0138089 0.0188395 0.0200708
1 1 0.015847 0.0135407 0.027944
ITEM: TIMESTEP
1000
ITEM: NUMBER OF ATOMS
4
ITEM: BOX BOUNDS pp pp pp
0.0000000000000000e+00 1.5850000000000000e+02
0.0000000000000000e+00 1.5850000000000000e+02
0.0000000000000000e+00 1.5850000000000000e+02
ITEM: ATOMS id type xs ys zs
4 3 0.0186382 0.0198882 0.00415841
3 3 0.0201286 0.0147745 0.0121845
2 2 0.0166371 0.0192919 0.0200297
1 1 0.0188324 0.0139793 0.0277574
ITEM: TIMESTEP
1100
ITEM: NUMBER OF ATOMS
4
ITEM: BOX BOUNDS pp pp pp
0.0000000000000000e+00 1.5850000000000000e+02
0.0000000000000000e+00 1.5850000000000000e+02
0.0000000000000000e+00 1.5850000000000000e+02
ITEM: ATOMS id type xs ys zs
4 3 0.0192827 0.0181629 0.00396324
3 3 0.020869 0.0134927 0.0122373
2 2 0.0200234 0.0195948 0.0195172
1 1 0.0210757 0.0142868 0.0274766
ITEM: TIMESTEP
1200
ITEM: NUMBER OF ATOMS
4
ITEM: BOX BOUNDS pp pp pp
0.0000000000000000e+00 1.5850000000000000e+02
0.0000000000000000e+00 1.5850000000000000e+02
0.0000000000000000e+00 1.5850000000000000e+02
ITEM: ATOMS id type xs ys zs
4 3 0.0214581 0.0148657 0.00375241
3 3 0.02144 0.0121615 0.0128005
2 2 0.0252345 0.019143 0.0181212
1 1 0.025971 0.0149753 0.0268055
ITEM: TIMESTEP
1300
ITEM: NUMBER OF ATOMS
4
ITEM: BOX BOUNDS pp pp pp
0.0000000000000000e+00 1.5850000000000000e+02
0.0000000000000000e+00 1.5850000000000000e+02
0.0000000000000000e+00 1.5850000000000000e+02
ITEM: ATOMS id type xs ys zs
4 3 0.0229172 0.0119274 0.00386694
3 3 0.0234833 0.0112888 0.0134973
2 2 0.0312065 0.0160791 0.0163351
1 1 0.0305946 0.0170331 0.0258995
ITEM: TIMESTEP
1400
ITEM: NUMBER OF ATOMS
4
ITEM: BOX BOUNDS pp pp pp
0.0000000000000000e+00 1.5850000000000000e+02
0.0000000000000000e+00 1.5850000000000000e+02
0.0000000000000000e+00 1.5850000000000000e+02
ITEM: ATOMS id type xs ys zs
4 3 0.0245398 0.00855436 0.00453126
3 3 0.0247147 0.0123138 0.0133885
2 2 0.0338741 0.0148823 0.0155412
1 1 0.034717 0.0172825 0.0248513
ITEM: TIMESTEP
1500
ITEM: NUMBER OF ATOMS
4
ITEM: BOX BOUNDS pp pp pp
0.0000000000000000e+00 1.5850000000000000e+02
0.0000000000000000e+00 1.5850000000000000e+02
0.0000000000000000e+00 1.5850000000000000e+02
ITEM: ATOMS id type xs ys zs
4 3 0.0255098 0.00710497 0.00499904
3 3 0.02659 0.0118167 0.0135462
2 2 0.0360246 0.0127232 0.0156197
1 1 0.0378241 0.0186195 0.0230664
ITEM: TIMESTEP
1600
ITEM: NUMBER OF ATOMS
4
ITEM: BOX BOUNDS pp pp pp
0.0000000000000000e+00 1.5850000000000000e+02
0.0000000000000000e+00 1.5850000000000000e+02
0.0000000000000000e+00 1.5850000000000000e+02
ITEM: ATOMS id type xs ys zs
4 3 0.0268055 0.00429372 0.00734667
3 3 0.0292371 0.0123904 0.0120959
2 2 0.0385526 0.0115656 0.0151517
1 1 0.0415331 0.0185363 0.0212789
ITEM: TIMESTEP
1700
ITEM: NUMBER OF ATOMS
4
ITEM: BOX BOUNDS pp pp pp
0.0000000000000000e+00 1.5850000000000000e+02
0.0000000000000000e+00 1.5850000000000000e+02
0.0000000000000000e+00 1.5850000000000000e+02
ITEM: ATOMS id type xs ys zs
4 3 0.0292857 0.00232005 0.0100817
3 3 0.0333173 0.0111526 0.0112359
2 2 0.0416495 0.0100165 0.0158955
1 1 0.0464153 0.0183288 0.0167204
ITEM: TIMESTEP
1800
ITEM: NUMBER OF ATOMS
4
ITEM: BOX BOUNDS pp pp pp
0.0000000000000000e+00 1.5850000000000000e+02
0.0000000000000000e+00 1.5850000000000000e+02
0.0000000000000000e+00 1.5850000000000000e+02
ITEM: ATOMS id type xs ys zs
4 3 0.0313498 0.00174736 0.0126887
3 3 0.0366369 0.00920243 0.00999046
2 2 0.0440734 0.00979156 0.0161233
1 1 0.0495129 0.0173504 0.0136761
ITEM: TIMESTEP
1900
ITEM: NUMBER OF ATOMS
4
ITEM: BOX BOUNDS pp pp pp
0.0000000000000000e+00 1.5850000000000000e+02
0.0000000000000000e+00 1.5850000000000000e+02
0.0000000000000000e+00 1.5850000000000000e+02
ITEM: ATOMS id type xs ys zs
4 3 0.0328479 0.0015423 0.0140656
3 3 0.0389564 0.00770017 0.0098596
2 2 0.0457798 0.00995552 0.0160489
1 1 0.0514279 0.016352 0.0115122
ITEM: TIMESTEP
2000
ITEM: NUMBER OF ATOMS
4
ITEM: BOX BOUNDS pp pp pp
0.0000000000000000e+00 1.5850000000000000e+02
0.0000000000000000e+00 1.5850000000000000e+02
0.0000000000000000e+00 1.5850000000000000e+02
ITEM: ATOMS id type xs ys zs
4 3 0.0350326 0.00125311 0.0155577
3 3 0.0413321 0.00574369 0.0100114
2 2 0.0474355 0.0109046 0.0154251
1 1 0.053879 0.014687 0.00933579
ITEM: TIMESTEP
2100
ITEM: NUMBER OF ATOMS
4
ITEM: BOX BOUNDS pp pp pp
0.0000000000000000e+00 1.5850000000000000e+02
0.0000000000000000e+00 1.5850000000000000e+02
0.0000000000000000e+00 1.5850000000000000e+02
ITEM: ATOMS id type xs ys zs
4 3 0.037619 0.00136128 0.017206
3 3 0.0452049 0.00321354 0.0113194
2 2 0.0501344 0.0111621 0.0136655
1 1 0.0564186 0.0128545 0.0065784
ITEM: TIMESTEP
2200
ITEM: NUMBER OF ATOMS
4
ITEM: BOX BOUNDS pp pp pp
0.0000000000000000e+00 1.5850000000000000e+02
0.0000000000000000e+00 1.5850000000000000e+02
0.0000000000000000e+00 1.5850000000000000e+02
ITEM: ATOMS id type xs ys zs
4 3 0.0419699 0.00144276 0.019524
3 3 0.0487021 0.00167745 0.0125558
2 2 0.0515483 0.0107688 0.0101383
1 1 0.0597027 0.0104155 0.00487752
ITEM: TIMESTEP
2300
ITEM: NUMBER OF ATOMS
4
ITEM: BOX BOUNDS pp pp pp
0.0000000000000000e+00 1.5850000000000000e+02
0.0000000000000000e+00 1.5850000000000000e+02
0.0000000000000000e+00 1.5850000000000000e+02
ITEM: ATOMS id type xs ys zs
4 3 0.0440918 0.0016772 0.0196923
3 3 0.0522119 0.00145472 0.0142634
2 2 0.0533236 0.00965517 0.00920116
1 1 0.0605455 0.00869859 0.00283813
ITEM: TIMESTEP
2400
ITEM: NUMBER OF ATOMS
4
ITEM: BOX BOUNDS pp pp pp
0.0000000000000000e+00 1.5850000000000000e+02
0.0000000000000000e+00 1.5850000000000000e+02
0.0000000000000000e+00 1.5850000000000000e+02
ITEM: ATOMS id type xs ys zs
4 3 0.0465474 0.00238076 0.0205142
3 3 0.0539309 0.00108986 0.0144643
2 2 0.0537118 0.00810312 0.00775104
1 1 0.0618012 0.00792382 0.00248923
ITEM: TIMESTEP
2500
ITEM: NUMBER OF ATOMS
4
ITEM: BOX BOUNDS pp pp pp
0.0000000000000000e+00 1.5850000000000000e+02
0.0000000000000000e+00 1.5850000000000000e+02
0.0000000000000000e+00 1.5850000000000000e+02
ITEM: ATOMS id type xs ys zs
4 3 0.0487306 0.00223554 0.0204095
3 3 0.0569327 0.00203562 0.0153811
2 2 0.0550529 0.00678869 0.0072931
1 1 0.0624303 0.00599286 0.00118046
ITEM: TIMESTEP
2600
ITEM: NUMBER OF ATOMS
4
ITEM: BOX BOUNDS pp pp pp
0.0000000000000000e+00 1.5850000000000000e+02
0.0000000000000000e+00 1.5850000000000000e+02
0.0000000000000000e+00 1.5850000000000000e+02
ITEM: ATOMS id type xs ys zs
4 3 0.0522917 0.00303936 0.020973
3 3 0.0599008 0.00243429 0.0152781
2 2 0.0564516 0.00385499 0.00648221
1 1 0.0638281 0.00453757 0.000286723
ITEM: TIMESTEP
2700
ITEM: NUMBER OF ATOMS
4
ITEM: BOX BOUNDS pp pp pp
0.0000000000000000e+00 1.5850000000000000e+02
0.0000000000000000e+00 1.5850000000000000e+02
0.0000000000000000e+00 1.5850000000000000e+02
ITEM: ATOMS id type xs ys zs
4 3 0.0565888 0.00279373 0.0214485
3 3 0.0630491 0.0044206 0.0145413
2 2 0.0590204 0.00120803 0.0064851
1 1 0.0651359 0.00157524 0.999035
ITEM: TIMESTEP
2800
ITEM: NUMBER OF ATOMS
4
ITEM: BOX BOUNDS pp pp pp
0.0000000000000000e+00 1.5850000000000000e+02
0.0000000000000000e+00 1.5850000000000000e+02
0.0000000000000000e+00 1.5850000000000000e+02
ITEM: ATOMS id type xs ys zs
4 3 0.0614658 0.00365105 0.0217863
3 3 0.0655243 0.00483915 0.0130981
2 2 0.0621509 -0.00177195 0.00683387
1 1 0.0663281 -0.000709911 0.998234
ITEM: TIMESTEP
2900
ITEM: NUMBER OF ATOMS
4
ITEM: BOX BOUNDS pp pp pp
0.0000000000000000e+00 1.5850000000000000e+02
0.0000000000000000e+00 1.5850000000000000e+02
0.0000000000000000e+00 1.5850000000000000e+02
ITEM: ATOMS id type xs ys zs
4 3 0.065083 0.00427222 0.0215194
3 3 0.0669871 0.00487053 0.0120053
2 2 0.0653061 0.996455 0.00740386
1 1 0.0667534 0.997451 0.997868
ITEM: TIMESTEP
3000
ITEM: NUMBER OF ATOMS
4
ITEM: BOX BOUNDS pp pp pp
0.0000000000000000e+00 1.5850000000000000e+02
0.0000000000000000e+00 1.5850000000000000e+02
0.0000000000000000e+00 1.5850000000000000e+02
ITEM: ATOMS id type xs ys zs
4 3 0.0680078 0.0046762 0.0210756
3 3 0.0675559 0.00459194 0.0113392
2 2 0.0669318 0.995628 0.00763348
1 1 0.0674525 0.996165 0.997972
ITEM: TIMESTEP
3100
ITEM: NUMBER OF ATOMS
4
ITEM: BOX BOUNDS pp pp pp
0.0000000000000000e+00 1.5850000000000000e+02
0.0000000000000000e+00 1.5850000000000000e+02
0.0000000000000000e+00 1.5850000000000000e+02
ITEM: ATOMS id type xs ys zs
4 3 0.0705863 0.00504368 0.0201673
3 3 0.0691187 0.00409025 0.010674
2 2 0.0703252 0.99492 0.00765222
1 1 0.0672271 0.99451 0.998552
ITEM: TIMESTEP
3200
ITEM: NUMBER OF ATOMS
4
ITEM: BOX BOUNDS pp pp pp
0.0000000000000000e+00 1.5850000000000000e+02
0.0000000000000000e+00 1.5850000000000000e+02
0.0000000000000000e+00 1.5850000000000000e+02
ITEM: ATOMS id type xs ys zs
4 3 0.07621 0.00587329 0.0176235
3 3 0.0705953 0.00249426 0.0105355
2 2 0.073713 0.993962 0.00766966
1 1 0.0687661 0.992125 0.999612
ITEM: TIMESTEP
3300
ITEM: NUMBER OF ATOMS
4
ITEM: BOX BOUNDS pp pp pp
0.0000000000000000e+00 1.5850000000000000e+02
0.0000000000000000e+00 1.5850000000000000e+02
0.0000000000000000e+00 1.5850000000000000e+02
ITEM: ATOMS id type xs ys zs
4 3 0.0803482 0.00562893 0.0154904
3 3 0.0734497 0.0016952 0.0102994
2 2 0.0772819 0.99409 0.00588254
1 1 0.0699113 0.98904 0.00220672
ITEM: TIMESTEP
3400
ITEM: NUMBER OF ATOMS
4
ITEM: BOX BOUNDS pp pp pp
0.0000000000000000e+00 1.5850000000000000e+02
0.0000000000000000e+00 1.5850000000000000e+02
0.0000000000000000e+00 1.5850000000000000e+02
ITEM: ATOMS id type xs ys zs
4 3 0.0835452 0.00624364 0.0123678
3 3 0.0761359 0.000121865 0.0115094
2 2 0.079018 0.993276 0.00556878
1 1 0.0715895 0.987636 0.00319278
ITEM: TIMESTEP
3500
ITEM: NUMBER OF ATOMS
4
ITEM: BOX BOUNDS pp pp pp
0.0000000000000000e+00 1.5850000000000000e+02
0.0000000000000000e+00 1.5850000000000000e+02
0.0000000000000000e+00 1.5850000000000000e+02
ITEM: ATOMS id type xs ys zs
4 3 0.086246 0.00579403 0.0106882
3 3 0.0787985 0.999794 0.0112941
2 2 0.0798523 0.993087 0.00432183
1 1 0.0735924 0.9858 0.0052406
ITEM: TIMESTEP
3600
ITEM: NUMBER OF ATOMS
4
ITEM: BOX BOUNDS pp pp pp
0.0000000000000000e+00 1.5850000000000000e+02
0.0000000000000000e+00 1.5850000000000000e+02
0.0000000000000000e+00 1.5850000000000000e+02
ITEM: ATOMS id type xs ys zs
4 3 0.08846 0.00588968 0.00733432
3 3 0.0841223 0.998051 0.0114542
2 2 0.0814001 0.992036 0.00437947
1 1 0.0756217 0.9847 0.00689388
ITEM: TIMESTEP
3700
ITEM: NUMBER OF ATOMS
4
ITEM: BOX BOUNDS pp pp pp
0.0000000000000000e+00 1.5850000000000000e+02
0.0000000000000000e+00 1.5850000000000000e+02
0.0000000000000000e+00 1.5850000000000000e+02
ITEM: ATOMS id type xs ys zs
4 3 0.0920951 0.00424528 0.0039714
3 3 0.0898207 0.996506 0.00931917
2 2 0.0826533 0.991394 0.00491272
1 1 0.0801498 0.983368 0.00984214
ITEM: TIMESTEP
3800
ITEM: NUMBER OF ATOMS
4
ITEM: BOX BOUNDS pp pp pp
0.0000000000000000e+00 1.5850000000000000e+02
0.0000000000000000e+00 1.5850000000000000e+02
0.0000000000000000e+00 1.5850000000000000e+02
ITEM: ATOMS id type xs ys zs
4 3 0.0941397 0.00282895 0.00175406
3 3 0.0933598 0.994655 0.00706451
2 2 0.0843405 0.991296 0.006406
1 1 0.0833756 0.983146 0.0114205
ITEM: TIMESTEP
3900
ITEM: NUMBER OF ATOMS
4
ITEM: BOX BOUNDS pp pp pp
0.0000000000000000e+00 1.5850000000000000e+02
0.0000000000000000e+00 1.5850000000000000e+02
0.0000000000000000e+00 1.5850000000000000e+02
ITEM: ATOMS id type xs ys zs
4 3 0.0959832 0.001429 0.000361941
3 3 0.0953704 0.993125 0.00503408
2 2 0.0861544 0.991163 0.00729878
1 1 0.0863682 0.98325 0.0127949
ITEM: TIMESTEP
4000
ITEM: NUMBER OF ATOMS
4
ITEM: BOX BOUNDS pp pp pp
0.0000000000000000e+00 1.5850000000000000e+02
0.0000000000000000e+00 1.5850000000000000e+02
0.0000000000000000e+00 1.5850000000000000e+02
ITEM: ATOMS id type xs ys zs
4 3 0.0975467 -0.000603077 -0.00189546
3 3 0.0972227 0.991427 0.00353006
2 2 0.0896501 0.991764 0.00920749
1 1 0.0892874 0.98302 0.0133361
ITEM: TIMESTEP
4100
ITEM: NUMBER OF ATOMS
4
ITEM: BOX BOUNDS pp pp pp
0.0000000000000000e+00 1.5850000000000000e+02
0.0000000000000000e+00 1.5850000000000000e+02
0.0000000000000000e+00 1.5850000000000000e+02
ITEM: ATOMS id type xs ys zs
3 3 0.0980522 0.9894 0.00153287
2 2 0.0936559 0.99163 0.00980165
1 1 0.0936549 0.983416 0.0148337
4 3 0.100224 0.997103 0.996425
ITEM: TIMESTEP
4200
ITEM: NUMBER OF ATOMS
4
ITEM: BOX BOUNDS pp pp pp
0.0000000000000000e+00 1.5850000000000000e+02
0.0000000000000000e+00 1.5850000000000000e+02
0.0000000000000000e+00 1.5850000000000000e+02
ITEM: ATOMS id type xs ys zs
3 3 0.0997356 0.987653 0.000933321
2 2 0.100341 0.990874 0.00995474
1 1 0.0964768 0.984217 0.0157189
4 3 0.101214 0.994643 0.994361
ITEM: TIMESTEP
4300
ITEM: NUMBER OF ATOMS
4
ITEM: BOX BOUNDS pp pp pp
0.0000000000000000e+00 1.5850000000000000e+02
0.0000000000000000e+00 1.5850000000000000e+02
0.0000000000000000e+00 1.5850000000000000e+02
ITEM: ATOMS id type xs ys zs
3 3 0.0995136 0.987323 0.000749809
2 2 0.102908 0.990513 0.00930686
1 1 0.100211 0.984489 0.0164113
4 3 0.103424 0.992229 0.993395
ITEM: TIMESTEP
4400
ITEM: NUMBER OF ATOMS
4
ITEM: BOX BOUNDS pp pp pp
0.0000000000000000e+00 1.5850000000000000e+02
0.0000000000000000e+00 1.5850000000000000e+02
0.0000000000000000e+00 1.5850000000000000e+02
ITEM: ATOMS id type xs ys zs
3 3 0.100664 0.986459 0.000839527
2 2 0.106118 0.98888 0.00848948
1 1 0.10214 0.985843 0.0167747
4 3 0.10393 0.991049 0.992852
ITEM: TIMESTEP
4500
ITEM: NUMBER OF ATOMS
4
ITEM: BOX BOUNDS pp pp pp
0.0000000000000000e+00 1.5850000000000000e+02
0.0000000000000000e+00 1.5850000000000000e+02
0.0000000000000000e+00 1.5850000000000000e+02
ITEM: ATOMS id type xs ys zs
3 3 0.101621 0.987139 0.00114337
2 2 0.108981 0.987866 0.00752534
1 1 0.106235 0.986352 0.0166484
4 3 0.105643 0.987586 0.992354
ITEM: TIMESTEP
4600
ITEM: NUMBER OF ATOMS
4
ITEM: BOX BOUNDS pp pp pp
0.0000000000000000e+00 1.5850000000000000e+02
0.0000000000000000e+00 1.5850000000000000e+02
0.0000000000000000e+00 1.5850000000000000e+02
ITEM: ATOMS id type xs ys zs
3 3 0.104735 0.986959 0.00133414
2 2 0.112568 0.985165 0.00656655
1 1 0.111424 0.988277 0.0155968
4 3 0.106979 0.984022 0.99241
ITEM: TIMESTEP
4700
ITEM: NUMBER OF ATOMS
4
ITEM: BOX BOUNDS pp pp pp
0.0000000000000000e+00 1.5850000000000000e+02
0.0000000000000000e+00 1.5850000000000000e+02
0.0000000000000000e+00 1.5850000000000000e+02
ITEM: ATOMS id type xs ys zs
3 3 0.108126 0.986933 0.000612188
2 2 0.115004 0.983561 0.00637207
1 1 0.116119 0.989233 0.0141317
4 3 0.107834 0.980809 0.993273
ITEM: TIMESTEP
4800
ITEM: NUMBER OF ATOMS
4
ITEM: BOX BOUNDS pp pp pp
0.0000000000000000e+00 1.5850000000000000e+02
0.0000000000000000e+00 1.5850000000000000e+02
0.0000000000000000e+00 1.5850000000000000e+02
ITEM: ATOMS id type xs ys zs
3 3 0.111301 0.986055 -0.000207563
2 2 0.117252 0.982689 0.00647858
1 1 0.11971 0.989851 0.0124593
4 3 0.108275 0.97871 0.994397
ITEM: TIMESTEP
4900
ITEM: NUMBER OF ATOMS
4
ITEM: BOX BOUNDS pp pp pp
0.0000000000000000e+00 1.5850000000000000e+02
0.0000000000000000e+00 1.5850000000000000e+02
0.0000000000000000e+00 1.5850000000000000e+02
ITEM: ATOMS id type xs ys zs
3 3 0.11402 0.98464 0.999073
2 2 0.118623 0.982485 0.00729341
1 1 0.123985 0.989967 0.0100446
4 3 0.10951 0.976932 0.995436
ITEM: TIMESTEP
5000
ITEM: NUMBER OF ATOMS
4
ITEM: BOX BOUNDS pp pp pp
0.0000000000000000e+00 1.5850000000000000e+02
0.0000000000000000e+00 1.5850000000000000e+02
0.0000000000000000e+00 1.5850000000000000e+02
ITEM: ATOMS id type xs ys zs
3 3 0.1176 0.982104 0.998231
2 2 0.121466 0.982343 0.00716394
1 1 0.127256 0.990104 0.00779828
4 3 0.110153 0.975941 0.997275
ITEM: TIMESTEP
5100
ITEM: NUMBER OF ATOMS
4
ITEM: BOX BOUNDS pp pp pp
0.0000000000000000e+00 1.5850000000000000e+02
0.0000000000000000e+00 1.5850000000000000e+02
0.0000000000000000e+00 1.5850000000000000e+02
ITEM: ATOMS id type xs ys zs
2 2 0.122865 0.984273 0.0065901
1 1 0.131568 0.988305 0.0051642
3 3 0.120113 0.98024 0.998187
4 3 0.112641 0.974014 0.999098
ITEM: TIMESTEP
5200
ITEM: NUMBER OF ATOMS
4
ITEM: BOX BOUNDS pp pp pp
0.0000000000000000e+00 1.5850000000000000e+02
0.0000000000000000e+00 1.5850000000000000e+02
0.0000000000000000e+00 1.5850000000000000e+02
ITEM: ATOMS id type xs ys zs
2 2 0.125877 0.984089 0.0055693
1 1 0.134081 0.987922 0.0023378
3 3 0.123427 0.977112 0.999197
4 3 0.114359 0.974101 0.000526061
ITEM: TIMESTEP
5300
ITEM: NUMBER OF ATOMS
4
ITEM: BOX BOUNDS pp pp pp
0.0000000000000000e+00 1.5850000000000000e+02
0.0000000000000000e+00 1.5850000000000000e+02
0.0000000000000000e+00 1.5850000000000000e+02
ITEM: ATOMS id type xs ys zs
2 2 0.127674 0.984757 0.00248499
1 1 0.137079 0.98621 0.000998957
3 3 0.125896 0.975696 0.999904
4 3 0.117049 0.973161 0.00291515
ITEM: TIMESTEP
5400
ITEM: NUMBER OF ATOMS
4
ITEM: BOX BOUNDS pp pp pp
0.0000000000000000e+00 1.5850000000000000e+02
0.0000000000000000e+00 1.5850000000000000e+02
0.0000000000000000e+00 1.5850000000000000e+02
ITEM: ATOMS id type xs ys zs
2 2 0.129837 0.983869 0.00119726
1 1 0.138987 0.985464 0.998484
3 3 0.128412 0.974374 0.00190145
4 3 0.119108 0.973163 0.00356703
ITEM: TIMESTEP
5500
ITEM: NUMBER OF ATOMS
4
ITEM: BOX BOUNDS pp pp pp
0.0000000000000000e+00 1.5850000000000000e+02
0.0000000000000000e+00 1.5850000000000000e+02
0.0000000000000000e+00 1.5850000000000000e+02
ITEM: ATOMS id type xs ys zs
2 2 0.131795 0.98242 -0.00137662
1 1 0.141072 0.984421 0.997023
3 3 0.130879 0.974018 0.00300888
4 3 0.121557 0.97295 0.00529885
ITEM: TIMESTEP
5600
ITEM: NUMBER OF ATOMS
4
ITEM: BOX BOUNDS pp pp pp
0.0000000000000000e+00 1.5850000000000000e+02
0.0000000000000000e+00 1.5850000000000000e+02
0.0000000000000000e+00 1.5850000000000000e+02
ITEM: ATOMS id type xs ys zs
2 2 0.134627 0.979931 0.996853
1 1 0.143426 0.982682 0.994008
3 3 0.134248 0.974466 0.00491967
4 3 0.125014 0.972626 0.0065705
ITEM: TIMESTEP
5700
ITEM: NUMBER OF ATOMS
4
ITEM: BOX BOUNDS pp pp pp
0.0000000000000000e+00 1.5850000000000000e+02
0.0000000000000000e+00 1.5850000000000000e+02
0.0000000000000000e+00 1.5850000000000000e+02
ITEM: ATOMS id type xs ys zs
2 2 0.137445 0.976932 0.995537
1 1 0.145776 0.979861 0.991595
3 3 0.137659 0.976464 0.00517453
4 3 0.12955 0.971966 0.00829562
ITEM: TIMESTEP
5800
ITEM: NUMBER OF ATOMS
4
ITEM: BOX BOUNDS pp pp pp
0.0000000000000000e+00 1.5850000000000000e+02
0.0000000000000000e+00 1.5850000000000000e+02
0.0000000000000000e+00 1.5850000000000000e+02
ITEM: ATOMS id type xs ys zs
2 2 0.139988 0.973989 0.995388
1 1 0.146543 0.978868 0.990147
3 3 0.140042 0.976745 0.00475712
4 3 0.132466 0.97268 0.00916084
ITEM: TIMESTEP
5900
ITEM: NUMBER OF ATOMS
4
ITEM: BOX BOUNDS pp pp pp
0.0000000000000000e+00 1.5850000000000000e+02
0.0000000000000000e+00 1.5850000000000000e+02
0.0000000000000000e+00 1.5850000000000000e+02
ITEM: ATOMS id type xs ys zs
2 2 0.141309 0.972837 0.995253
1 1 0.147831 0.977061 0.989579
3 3 0.140886 0.977645 0.00361171
4 3 0.135803 0.972419 0.0101037
ITEM: TIMESTEP
6000
ITEM: NUMBER OF ATOMS
4
ITEM: BOX BOUNDS pp pp pp
0.0000000000000000e+00 1.5850000000000000e+02
0.0000000000000000e+00 1.5850000000000000e+02
0.0000000000000000e+00 1.5850000000000000e+02
ITEM: ATOMS id type xs ys zs
2 2 0.144907 0.970733 0.996051
1 1 0.147634 0.97569 0.988252
3 3 0.143102 0.977386 0.00288052
4 3 0.138568 0.973288 0.010246
ITEM: TIMESTEP
6100
ITEM: NUMBER OF ATOMS
4
ITEM: BOX BOUNDS pp pp pp
0.0000000000000000e+00 1.5850000000000000e+02
0.0000000000000000e+00 1.5850000000000000e+02
0.0000000000000000e+00 1.5850000000000000e+02
ITEM: ATOMS id type xs ys zs
3 3 0.144092 0.976618 0.00146612
4 3 0.14387 0.974216 0.0108359
2 2 0.147251 0.969387 0.99618
1 1 0.149204 0.973388 0.987586
ITEM: TIMESTEP
6200
ITEM: NUMBER OF ATOMS
4
ITEM: BOX BOUNDS pp pp pp
0.0000000000000000e+00 1.5850000000000000e+02
0.0000000000000000e+00 1.5850000000000000e+02
0.0000000000000000e+00 1.5850000000000000e+02
ITEM: ATOMS id type xs ys zs
3 3 0.146808 0.975765 0.00102182
4 3 0.147721 0.974874 0.0104419
2 2 0.15209 0.969371 0.996106
1 1 0.148862 0.969819 0.987022
ITEM: TIMESTEP
6300
ITEM: NUMBER OF ATOMS
4
ITEM: BOX BOUNDS pp pp pp
0.0000000000000000e+00 1.5850000000000000e+02
0.0000000000000000e+00 1.5850000000000000e+02
0.0000000000000000e+00 1.5850000000000000e+02
ITEM: ATOMS id type xs ys zs
3 3 0.148629 0.973973 0.00104085
4 3 0.152861 0.976503 0.00940303
2 2 0.154336 0.968449 0.99569
1 1 0.150339 0.967254 0.987032
ITEM: TIMESTEP
6400
ITEM: NUMBER OF ATOMS
4
ITEM: BOX BOUNDS pp pp pp
0.0000000000000000e+00 1.5850000000000000e+02
0.0000000000000000e+00 1.5850000000000000e+02
0.0000000000000000e+00 1.5850000000000000e+02
ITEM: ATOMS id type xs ys zs
3 3 0.150875 0.973065 0.00129034
4 3 0.156218 0.976929 0.00831842
2 2 0.156511 0.96886 0.994569
1 1 0.151127 0.964397 0.987846
ITEM: TIMESTEP
6500
ITEM: NUMBER OF ATOMS
4
ITEM: BOX BOUNDS pp pp pp
0.0000000000000000e+00 1.5850000000000000e+02
0.0000000000000000e+00 1.5850000000000000e+02
0.0000000000000000e+00 1.5850000000000000e+02
ITEM: ATOMS id type xs ys zs
3 3 0.152717 0.972042 0.00167337
4 3 0.158783 0.977588 0.00695204
2 2 0.157594 0.96851 0.994099
1 1 0.152104 0.962902 0.988437
ITEM: TIMESTEP
6600
ITEM: NUMBER OF ATOMS
4
ITEM: BOX BOUNDS pp pp pp
0.0000000000000000e+00 1.5850000000000000e+02
0.0000000000000000e+00 1.5850000000000000e+02
0.0000000000000000e+00 1.5850000000000000e+02
ITEM: ATOMS id type xs ys zs
3 3 0.155706 0.970797 0.00223691
4 3 0.161388 0.978082 0.00505494
2 2 0.158752 0.968218 0.993315
1 1 0.153304 0.961228 0.989493
ITEM: TIMESTEP
6700
ITEM: NUMBER OF ATOMS
4
ITEM: BOX BOUNDS pp pp pp
0.0000000000000000e+00 1.5850000000000000e+02
0.0000000000000000e+00 1.5850000000000000e+02
0.0000000000000000e+00 1.5850000000000000e+02
ITEM: ATOMS id type xs ys zs
3 3 0.160563 0.969712 0.00215562
4 3 0.165612 0.978023 0.00208473
2 2 0.159635 0.967528 0.99282
1 1 0.156034 0.958724 0.991347
ITEM: TIMESTEP
6800
ITEM: NUMBER OF ATOMS
4
ITEM: BOX BOUNDS pp pp pp
0.0000000000000000e+00 1.5850000000000000e+02
0.0000000000000000e+00 1.5850000000000000e+02
0.0000000000000000e+00 1.5850000000000000e+02
ITEM: ATOMS id type xs ys zs
3 3 0.166759 0.968445 0.000308367
4 3 0.168132 0.977905 -4.89898e-05
2 2 0.161336 0.966208 0.992698
1 1 0.15781 0.957263 0.993822
ITEM: TIMESTEP
6900
ITEM: NUMBER OF ATOMS
4
ITEM: BOX BOUNDS pp pp pp
0.0000000000000000e+00 1.5850000000000000e+02
0.0000000000000000e+00 1.5850000000000000e+02
0.0000000000000000e+00 1.5850000000000000e+02
ITEM: ATOMS id type xs ys zs
3 3 0.16959 0.967933 -0.000926205
4 3 0.171495 0.977186 -0.0026155
2 2 0.161618 0.965547 0.994403
1 1 0.160699 0.955956 0.994669
ITEM: TIMESTEP
7000
ITEM: NUMBER OF ATOMS
4
ITEM: BOX BOUNDS pp pp pp
0.0000000000000000e+00 1.5850000000000000e+02
0.0000000000000000e+00 1.5850000000000000e+02
0.0000000000000000e+00 1.5850000000000000e+02
ITEM: ATOMS id type xs ys zs
3 3 0.172585 0.967121 0.996157
4 3 0.173684 0.976657 0.99643
2 2 0.163395 0.96459 0.994822
1 1 0.16249 0.955263 0.996953
ITEM: TIMESTEP
7100
ITEM: NUMBER OF ATOMS
4
ITEM: BOX BOUNDS pp pp pp
0.0000000000000000e+00 1.5850000000000000e+02
0.0000000000000000e+00 1.5850000000000000e+02
0.0000000000000000e+00 1.5850000000000000e+02
ITEM: ATOMS id type xs ys zs
1 1 0.165941 0.954222 0.997739
3 3 0.175525 0.965805 0.994127
4 3 0.17734 0.975069 0.992033
2 2 0.167175 0.963811 0.99862
ITEM: TIMESTEP
7200
ITEM: NUMBER OF ATOMS
4
ITEM: BOX BOUNDS pp pp pp
0.0000000000000000e+00 1.5850000000000000e+02
0.0000000000000000e+00 1.5850000000000000e+02
0.0000000000000000e+00 1.5850000000000000e+02
ITEM: ATOMS id type xs ys zs
1 1 0.1704 0.953879 0.000718969
3 3 0.177424 0.963787 0.990928
4 3 0.181163 0.972612 0.989091
2 2 0.173153 0.963107 0.999625
ITEM: TIMESTEP
7300
ITEM: NUMBER OF ATOMS
4
ITEM: BOX BOUNDS pp pp pp
0.0000000000000000e+00 1.5850000000000000e+02
0.0000000000000000e+00 1.5850000000000000e+02
0.0000000000000000e+00 1.5850000000000000e+02
ITEM: ATOMS id type xs ys zs
1 1 0.173032 0.954225 0.00203434
3 3 0.178245 0.962851 0.990139
4 3 0.183084 0.97061 0.986945
2 2 0.177952 0.962224 0.999887
ITEM: TIMESTEP
7400
ITEM: NUMBER OF ATOMS
4
ITEM: BOX BOUNDS pp pp pp
0.0000000000000000e+00 1.5850000000000000e+02
0.0000000000000000e+00 1.5850000000000000e+02
0.0000000000000000e+00 1.5850000000000000e+02
ITEM: ATOMS id type xs ys zs
1 1 0.175652 0.955034 0.00341021
3 3 0.179215 0.961906 0.989774
4 3 0.184654 0.968804 0.985578
2 2 0.181734 0.961109 0.99905
ITEM: TIMESTEP
7500
ITEM: NUMBER OF ATOMS
4
ITEM: BOX BOUNDS pp pp pp
0.0000000000000000e+00 1.5850000000000000e+02
0.0000000000000000e+00 1.5850000000000000e+02
0.0000000000000000e+00 1.5850000000000000e+02
ITEM: ATOMS id type xs ys zs
1 1 0.179396 0.955493 0.00435681
3 3 0.180275 0.962385 0.990231
4 3 0.186565 0.965476 0.983736
2 2 0.185285 0.959993 0.998119
ITEM: TIMESTEP
7600
ITEM: NUMBER OF ATOMS
4
ITEM: BOX BOUNDS pp pp pp
0.0000000000000000e+00 1.5850000000000000e+02
0.0000000000000000e+00 1.5850000000000000e+02
0.0000000000000000e+00 1.5850000000000000e+02
ITEM: ATOMS id type xs ys zs
1 1 0.185079 0.957833 0.00556249
3 3 0.182916 0.961136 0.990063
4 3 0.188587 0.962412 0.982363
2 2 0.188615 0.957292 0.99663
ITEM: TIMESTEP
7700
ITEM: NUMBER OF ATOMS
4
ITEM: BOX BOUNDS pp pp pp
0.0000000000000000e+00 1.5850000000000000e+02
0.0000000000000000e+00 1.5850000000000000e+02
0.0000000000000000e+00 1.5850000000000000e+02
ITEM: ATOMS id type xs ys zs
1 1 0.189355 0.958237 0.00542573
3 3 0.187441 0.962082 0.989913
4 3 0.188641 0.957998 0.981371
2 2 0.191753 0.956257 0.99631
ITEM: TIMESTEP
7800
ITEM: NUMBER OF ATOMS
4
ITEM: BOX BOUNDS pp pp pp
0.0000000000000000e+00 1.5850000000000000e+02
0.0000000000000000e+00 1.5850000000000000e+02
0.0000000000000000e+00 1.5850000000000000e+02
ITEM: ATOMS id type xs ys zs
1 1 0.193331 0.959458 0.00493198
3 3 0.188777 0.960969 0.989677
4 3 0.189911 0.956605 0.981079
2 2 0.192348 0.955092 0.996374
ITEM: TIMESTEP
7900
ITEM: NUMBER OF ATOMS
4
ITEM: BOX BOUNDS pp pp pp
0.0000000000000000e+00 1.5850000000000000e+02
0.0000000000000000e+00 1.5850000000000000e+02
0.0000000000000000e+00 1.5850000000000000e+02
ITEM: ATOMS id type xs ys zs
1 1 0.195705 0.959963 0.00440543
3 3 0.192598 0.960268 0.988659
4 3 0.189259 0.954639 0.981574
2 2 0.194485 0.954628 0.996398
ITEM: TIMESTEP
8000
ITEM: NUMBER OF ATOMS
4
ITEM: BOX BOUNDS pp pp pp
0.0000000000000000e+00 1.5850000000000000e+02