ITEM: TIMESTEP
0
ITEM: NUMBER OF ATOMS
100
ITEM: BOX BOUNDS pp pp pp
0.0000000000000000e+00 1.5850000000000000e+02
0.0000000000000000e+00 1.5850000000000000e+02
0.0000000000000000e+00 1.5850000000000000e+02
ITEM: ATOMS id type xs ys zs
1 3 0.340293 0.339839 0.342285
2 2 0.337554 0.34439 0.3456
3 1 0.339401 0.339407 0.342096
4 2 0.335044 0.335586 0.34418
5 1 0.338596 0.337995 0.348785
6 2 0.343312 0.342041 0.348022
7 2 0.346612 0.346425 0.351215
8 3 0.347374 0.351083 0.355273
9 1 0.351753 0.354868 0.358063
10 2 0.355061 0.358205 0.362297
11 3 0.359989 0.36103 0.365233
12 1 0.363514 0.365906 0.367367
13 2 0.364789 0.371524 0.369437
14 2 0.369951 0.372937 0.372592
16 3 0.370496 0.369196 0.371357
15 2 0.37114 0.369349 0.377588
17 3 0.369548 0.366344 0.370819
18 3 0.367153 0.365845 0.373058
19 3 0.3699 0.365739 0.37154
20 1 0.375712 0.365136 0.373486
21 1 0.376607 0.371359 0.373789
22 3 0.374614 0.375668 0.377863
23 1 0.378375 0.378938 0.381798
24 3 0.381271 0.382824 0.385792
25 2 0.384239 0.38695 0.389547
26 3 0.387915 0.389379 0.39386
27 2 0.39237 0.392568 0.397227
28 1 0.395307 0.397586 0.399779
29 3 0.398856 0.401674 0.403052
30 1 0.402582 0.404673 0.407245
31 3 0.406471 0.407613 0.411138
32 3 0.408853 0.408603 0.413069
33 1 0.412777 0.413062 0.415407
34 1 0.416237 0.417205 0.418812
35 3 0.419708 0.419475 0.423645
36 3 0.422522 0.420065 0.424806
37 1 0.426416 0.42374 0.428367
38 3 0.429607 0.426887 0.432602
39 2 0.432941 0.431056 0.435824
40 1 0.436173 0.434763 0.439716
41 2 0.437804 0.437854 0.444978
42 1 0.441546 0.442195 0.44753
43 2 0.445495 0.445922 0.450672
44 1 0.449098 0.449742 0.45435
45 3 0.452498 0.454463 0.457093
46 3 0.454986 0.456015 0.458202
47 1 0.460022 0.459137 0.460654
48 3 0.46361 0.462332 0.464908
49 3 0.465148 0.464381 0.466542
50 2 0.466956 0.469342 0.470081
51 2 0.472247 0.47225 0.472171
52 1 0.475745 0.476772 0.475091
53 2 0.480041 0.478207 0.479606
54 2 0.483854 0.482499 0.482603
55 2 0.487444 0.485263 0.487154
56 2 0.49103 0.487908 0.491529
57 3 0.495048 0.49197 0.494564
58 3 0.496689 0.493892 0.496384
59 3 0.498483 0.495698 0.498369
60 2 0.5028 0.500253 0.499662
61 1 0.504135 0.504069 0.504324
62 2 0.507483 0.508462 0.507137
63 3 0.510557 0.512211 0.51125
64 3 0.511797 0.513545 0.513934
65 3 0.514242 0.514967 0.515009
66 3 0.515662 0.517789 0.515526
67 1 0.520262 0.520501 0.518909
68 1 0.52509 0.523209 0.522007
69 3 0.52791 0.526177 0.526932
70 1 0.531981 0.52841 0.531041
71 2 0.536336 0.532072 0.533793
72 1 0.538163 0.535419 0.538959
73 2 0.539719 0.539589 0.543697
74 1 0.543414 0.543133 0.547231
75 2 0.54676 0.546722 0.551319
76 3 0.549525 0.551369 0.554676
77 2 0.554216 0.554991 0.556561
78 1 0.558865 0.558079 0.559412
79 1 0.562307 0.560527 0.564246
80 1 0.565127 0.563571 0.569015
81 2 0.56757 0.567623 0.573159
82 3 0.569985 0.572827 0.575831
83 3 0.571742 0.57376 0.57829
84 1 0.574588 0.577369 0.582637
85 3 0.57728 0.581895 0.585991
86 3 0.57799 0.584669 0.584755
87 2 0.583374 0.584531 0.587959
88 2 0.579507 0.589415 0.589092
89 2 0.583195 0.584432 0.588943
93 3 0.586252 0.590994 0.589462
94 3 0.588422 0.588653 0.589699
95 3 0.586516 0.59092 0.589076
96 2 0.589514 0.586033 0.59184
98 2 0.589238 0.591249 0.595925
100 1 0.589244 0.591755 0.595751
91 1 0.582765 0.594101 0.593752
92 1 0.583632 0.587899 0.594447
90 1 0.583213 0.587845 0.594374
97 3 0.588817 0.585339 0.598161
99 3 0.584509 0.59202 0.600036
ITEM: TIMESTEP
100
ITEM: NUMBER OF ATOMS
100
ITEM: BOX BOUNDS pp pp pp
0.0000000000000000e+00 1.5850000000000000e+02
0.0000000000000000e+00 1.5850000000000000e+02
0.0000000000000000e+00 1.5850000000000000e+02
ITEM: ATOMS id type xs ys zs
1 3 0.341488 0.342094 0.343971
2 2 0.3389 0.345422 0.348659
3 1 0.340926 0.341516 0.344127
4 2 0.336517 0.337004 0.343772
5 1 0.338632 0.338567 0.349512
6 2 0.344386 0.341019 0.350249
7 2 0.345674 0.347185 0.349624
8 3 0.348388 0.350768 0.354104
9 1 0.35195 0.354444 0.357835
10 2 0.355842 0.358073 0.36129
11 3 0.359962 0.361788 0.364331
12 1 0.364101 0.365404 0.367439
13 2 0.363873 0.371044 0.370207
14 2 0.369544 0.372833 0.372453
16 3 0.370177 0.369039 0.371463
15 2 0.3717 0.369783 0.377556
17 3 0.369188 0.366056 0.371918
18 3 0.366914 0.366078 0.374088
19 3 0.369426 0.365708 0.37221
20 1 0.375568 0.365273 0.373794
21 1 0.376547 0.371413 0.372679
22 3 0.374474 0.376149 0.37629
23 1 0.377291 0.37791 0.381662
24 3 0.380684 0.381872 0.385254
25 2 0.384144 0.385609 0.388998
26 3 0.387713 0.389198 0.392787
27 2 0.391386 0.392922 0.396358
28 1 0.395028 0.396847 0.399703
29 3 0.398626 0.40078 0.403101
30 1 0.402352 0.404246 0.406831
31 3 0.406314 0.407282 0.410712
32 3 0.408402 0.408829 0.412511
33 1 0.412432 0.412734 0.415418
34 1 0.416027 0.416697 0.418783
35 3 0.419611 0.419304 0.423278
36 3 0.422308 0.42009 0.424723
37 1 0.426185 0.423604 0.428235
38 3 0.429536 0.426872 0.432495
39 2 0.432902 0.431021 0.43582
40 1 0.436133 0.434759 0.439766
41 2 0.437928 0.437951 0.444911
42 1 0.441651 0.442252 0.447613
43 2 0.445601 0.446047 0.450778
44 1 0.449173 0.449833 0.454322
45 3 0.452585 0.454381 0.457068
46 3 0.455045 0.456007 0.458206
47 1 0.459819 0.459145 0.460848
48 3 0.46356 0.46236 0.464758
49 3 0.465135 0.46441 0.466579
50 2 0.467192 0.469299 0.470026
51 2 0.472185 0.472423 0.472272
52 1 0.475935 0.476422 0.47539
53 2 0.480099 0.478733 0.479525
54 2 0.483932 0.482356 0.483013
55 2 0.487554 0.485364 0.487223
56 2 0.491208 0.488305 0.491437
57 3 0.495205 0.492127 0.494458
58 3 0.496703 0.494101 0.496424
59 3 0.498516 0.495752 0.498388
60 2 0.502347 0.500376 0.500379
61 1 0.504916 0.504575 0.504348
62 2 0.508086 0.508684 0.507918
63 3 0.511294 0.51277 0.511542
64 3 0.511688 0.513971 0.514421
65 3 0.514762 0.51459 0.51429
66 3 0.515824 0.517333 0.515434
67 1 0.520156 0.520194 0.519056
68 1 0.524295 0.523157 0.522835
69 3 0.528369 0.526072 0.526787
70 1 0.532124 0.529248 0.530824
71 2 0.535271 0.532573 0.535274
72 1 0.538343 0.536312 0.539451
73 2 0.541409 0.540061 0.543685
74 1 0.544257 0.544022 0.547751
75 2 0.547799 0.547982 0.55125
76 3 0.551717 0.551539 0.554785
77 2 0.555235 0.555094 0.558696
78 1 0.558649 0.558855 0.562455
79 1 0.562142 0.562648 0.566067
80 1 0.565576 0.566331 0.569845
81 2 0.568772 0.570001 0.573849
82 3 0.571651 0.573696 0.578082
83 3 0.573164 0.575477 0.580243
84 1 0.576895 0.579486 0.583591
85 3 0.576711 0.582751 0.589051
86 3 0.577685 0.584835 0.586875
87 2 0.583843 0.583279 0.585774
88 2 0.579724 0.587916 0.585711
89 2 0.583958 0.583172 0.586281
93 3 0.585853 0.589773 0.588249
94 3 0.588294 0.587825 0.589034
95 3 0.586195 0.58977 0.587851
96 2 0.589236 0.584894 0.590688
98 2 0.586437 0.590269 0.595341
100 1 0.586246 0.590725 0.595111
91 1 0.580412 0.591633 0.591322
92 1 0.582409 0.585813 0.592006
90 1 0.582322 0.58563 0.591997
97 3 0.587359 0.584109 0.596638
99 3 0.580778 0.58922 0.597903
ITEM: TIMESTEP
200
ITEM: NUMBER OF ATOMS
100
ITEM: BOX BOUNDS pp pp pp
0.0000000000000000e+00 1.5850000000000000e+02
0.0000000000000000e+00 1.5850000000000000e+02
0.0000000000000000e+00 1.5850000000000000e+02
ITEM: ATOMS id type xs ys zs
1 3 0.344073 0.347357 0.348043
2 2 0.344201 0.348069 0.354308
3 1 0.343802 0.346753 0.348146
4 2 0.341429 0.341339 0.345879
5 1 0.339948 0.343067 0.351762
6 2 0.346089 0.341664 0.352173
7 2 0.350278 0.346279 0.351119
8 3 0.350182 0.351748 0.354294
9 1 0.352203 0.355439 0.359017
10 2 0.357156 0.358487 0.36152
11 3 0.360906 0.36156 0.365596
12 1 0.364434 0.365126 0.369453
13 2 0.363885 0.371192 0.37101
14 2 0.369715 0.373397 0.37184
16 3 0.370357 0.369516 0.372095
15 2 0.371816 0.372209 0.377644
17 3 0.36956 0.366886 0.373623
18 3 0.367253 0.367351 0.375673
19 3 0.369833 0.366629 0.374029
20 1 0.376071 0.367096 0.375289
21 1 0.376644 0.372683 0.372454
22 3 0.374188 0.378123 0.374543
23 1 0.376697 0.376416 0.380072
24 3 0.379844 0.379713 0.384404
25 2 0.38333 0.383672 0.38783
26 3 0.38686 0.387638 0.39122
27 2 0.390419 0.39139 0.394816
28 1 0.394086 0.394991 0.398465
29 3 0.397801 0.398649 0.402013
30 1 0.401452 0.402497 0.405435
31 3 0.405131 0.406091 0.409083
32 3 0.407061 0.407677 0.411025
33 1 0.411118 0.410882 0.414651
34 1 0.414839 0.414608 0.418153
35 3 0.418488 0.41795 0.422092
36 3 0.420691 0.419451 0.423772
37 1 0.424184 0.423451 0.427225
38 3 0.427537 0.426731 0.431474
39 2 0.431115 0.4302 0.435379
40 1 0.434798 0.433823 0.439058
41 2 0.438409 0.437659 0.442591
42 1 0.441842 0.441498 0.446302
43 2 0.445076 0.445459 0.450085
44 1 0.448839 0.449523 0.453202
45 3 0.452948 0.453154 0.456441
46 3 0.454821 0.455064 0.458163
47 1 0.458558 0.458995 0.461506
48 3 0.462543 0.462893 0.46459
49 3 0.464618 0.46476 0.466123
50 2 0.468764 0.468331 0.469402
51 2 0.472189 0.472305 0.473016
52 1 0.476201 0.475869 0.476455
53 2 0.480203 0.479352 0.479977
54 2 0.484124 0.48264 0.483785
55 2 0.488015 0.486023 0.487511
56 2 0.491783 0.489625 0.491152
57 3 0.495382 0.493202 0.494987
58 3 0.497264 0.495178 0.496634
59 3 0.498964 0.49716 0.498419
60 2 0.502306 0.501059 0.502141
61 1 0.50593 0.504991 0.505532
62 2 0.509565 0.50899 0.508857
63 3 0.512449 0.512869 0.512919
64 3 0.513369 0.514969 0.515096
65 3 0.516439 0.515621 0.514742
66 3 0.51796 0.517276 0.516955
67 1 0.521281 0.520711 0.521104
68 1 0.524779 0.524203 0.525085
69 3 0.52841 0.527753 0.528885
70 1 0.53209 0.531259 0.532696
71 2 0.53579 0.534804 0.536454
72 1 0.539424 0.538221 0.540391
73 2 0.542812 0.541742 0.544453
74 1 0.546164 0.545392 0.548476
75 2 0.549483 0.549166 0.552447
76 3 0.552907 0.553002 0.556264
77 2 0.556416 0.556734 0.560111
78 1 0.559794 0.560444 0.564092
79 1 0.563314 0.56425 0.567857
80 1 0.566957 0.568105 0.571406
81 2 0.570464 0.57184 0.575186
82 3 0.573995 0.57537 0.579129
83 3 0.575661 0.577409 0.580872
84 1 0.576152 0.577301 0.587161
85 3 0.573804 0.583081 0.586347
86 3 0.575853 0.583818 0.584028
87 2 0.581295 0.580464 0.583288
88 2 0.57777 0.585158 0.581321
89 2 0.581342 0.580408 0.583626
93 3 0.582944 0.586961 0.585572
94 3 0.585613 0.585218 0.586062
95 3 0.5833 0.58711 0.585292
96 2 0.586738 0.582234 0.587658
98 2 0.584107 0.587463 0.592516
100 1 0.583889 0.587878 0.592344
91 1 0.57765 0.588537 0.589075
92 1 0.580035 0.582816 0.589566
90 1 0.579967 0.582604 0.589535
97 3 0.585456 0.581391 0.593776
99 3 0.578784 0.586055 0.595597
ITEM: TIMESTEP
300
ITEM: NUMBER OF ATOMS
100
ITEM: BOX BOUNDS pp pp pp
0.0000000000000000e+00 1.5850000000000000e+02
0.0000000000000000e+00 1.5850000000000000e+02
0.0000000000000000e+00 1.5850000000000000e+02
ITEM: ATOMS id type xs ys zs
1 3 0.345376 0.34952 0.350288
2 2 0.345423 0.347488 0.356248
3 1 0.344793 0.348912 0.350126
4 2 0.344789 0.342961 0.348045
5 1 0.340248 0.344959 0.351961
6 2 0.345903 0.342226 0.35153
7 2 0.350999 0.345863 0.35215
8 3 0.350109 0.351977 0.353436
9 1 0.353057 0.35489 0.358199
10 2 0.356927 0.358355 0.361817
11 3 0.360861 0.361695 0.365485
12 1 0.364988 0.36489 0.36907
13 2 0.363912 0.370908 0.370574
14 2 0.369402 0.373638 0.372058
16 3 0.370333 0.369843 0.372324
15 2 0.37111 0.37254 0.378007
17 3 0.369604 0.367067 0.373625
18 3 0.36714 0.367383 0.375549
19 3 0.36985 0.366828 0.374035
20 1 0.375755 0.367599 0.376265
21 1 0.376375 0.373101 0.373262
22 3 0.373606 0.378468 0.375072
23 1 0.377188 0.375768 0.379512
24 3 0.380195 0.379675 0.383495
25 2 0.383461 0.383509 0.387353
26 3 0.38689 0.38731 0.391099
27 2 0.39045 0.391102 0.39473
28 1 0.394086 0.394864 0.398314
29 3 0.397768 0.398574 0.401904
30 1 0.401495 0.402214 0.405517
31 3 0.405265 0.405796 0.409144
32 3 0.407165 0.407562 0.410966
33 1 0.410985 0.411042 0.414637
34 1 0.4148 0.414504 0.418329
35 3 0.418555 0.418015 0.422036
36 3 0.420396 0.419785 0.423913
37 1 0.424018 0.423346 0.427703
38 3 0.427616 0.426937 0.43149
39 2 0.431209 0.430546 0.435264
40 1 0.434814 0.434198 0.438985
41 2 0.438418 0.437931 0.442625
42 1 0.442026 0.441742 0.446181
43 2 0.445664 0.445575 0.449681
44 1 0.449329 0.449405 0.453155
45 3 0.453041 0.453257 0.456553
46 3 0.454932 0.455189 0.458211
47 1 0.458773 0.459042 0.461465
48 3 0.462648 0.46286 0.464726
49 3 0.464599 0.464734 0.466377
50 2 0.468535 0.468404 0.469737
51 2 0.472461 0.472012 0.473172
52 1 0.476325 0.475607 0.476694
53 2 0.480165 0.479186 0.480262
54 2 0.484005 0.482741 0.483855
55 2 0.487818 0.486296 0.487481
56 2 0.491574 0.489888 0.491136
57 3 0.495266 0.493541 0.4948
58 3 0.497083 0.495406 0.496622
59 3 0.498873 0.497308 0.498436
60 2 0.502408 0.501165 0.502055
61 1 0.505923 0.505049 0.505669
62 2 0.50946 0.508919 0.509282
63 3 0.513042 0.512736 0.512911
64 3 0.51487 0.514601 0.51474
65 3 0.516707 0.516431 0.516595
66 3 0.518555 0.518229 0.518475
67 1 0.522244 0.521779 0.522292
68 1 0.525899 0.525318 0.52616
69 3 0.529523 0.528864 0.530059
70 1 0.533113 0.532425 0.533973
71 2 0.536675 0.536007 0.537891
72 1 0.540211 0.539612 0.541807
73 2 0.543723 0.543243 0.545717
74 1 0.547215 0.5469 0.549614
75 2 0.550695 0.550583 0.55349
76 3 0.554176 0.554299 0.557338
77 2 0.557652 0.558055 0.561156
78 1 0.56109 0.561867 0.564968
79 1 0.564423 0.565747 0.56881
80 1 0.567596 0.569717 0.572714
81 2 0.570612 0.573747 0.576671
82 3 0.573216 0.577466 0.581101
83 3 0.57298 0.579051 0.583849
84 1 0.57638 0.574331 0.586041
85 3 0.573156 0.579422 0.5839
86 3 0.57428 0.580876 0.581274
87 2 0.580121 0.578316 0.581418
88 2 0.576737 0.583188 0.579471
89 2 0.580187 0.578337 0.581788
93 3 0.581911 0.584837 0.583611
94 3 0.58441 0.58312 0.584653
95 3 0.5823 0.584913 0.583283
96 2 0.585506 0.580064 0.586003
98 2 0.58187 0.586281 0.590442
100 1 0.581618 0.586689 0.590147
91 1 0.575827 0.585965 0.585783
92 1 0.578779 0.580845 0.58763
90 1 0.578679 0.58062 0.587616
97 3 0.58412 0.580599 0.592128
99 3 0.576137 0.584972 0.592727
ITEM: TIMESTEP
400
ITEM: NUMBER OF ATOMS
100
ITEM: BOX BOUNDS pp pp pp
0.0000000000000000e+00 1.5850000000000000e+02
0.0000000000000000e+00 1.5850000000000000e+02
0.0000000000000000e+00 1.5850000000000000e+02
ITEM: ATOMS id type xs ys zs
1 3 0.348961 0.352732 0.353137
2 2 0.350455 0.349984 0.358578
3 1 0.347781 0.352207 0.353289
4 2 0.346897 0.346059 0.352158
5 1 0.343662 0.349396 0.356423
6 2 0.347798 0.345457 0.353743
7 2 0.353643 0.347611 0.35274
8 3 0.354475 0.353728 0.35402
9 1 0.354381 0.355713 0.360007
10 2 0.358374 0.358294 0.364224
11 3 0.362428 0.36202 0.367411
12 1 0.366879 0.365961 0.369693
13 2 0.367316 0.372268 0.369692
14 2 0.370653 0.375596 0.373949
16 3 0.371998 0.372025 0.374429
15 2 0.369774 0.374024 0.379998
17 3 0.371254 0.368924 0.374529
18 3 0.368356 0.368977 0.375771
19 3 0.371413 0.36866 0.375168
20 1 0.375342 0.369705 0.380044
21 1 0.376197 0.375764 0.378344
22 3 0.37204 0.380561 0.37878
23 1 0.376498 0.376178 0.378381
24 3 0.380236 0.379431 0.382438
25 2 0.383982 0.382926 0.386237
26 3 0.387578 0.386568 0.390063
27 2 0.391089 0.390305 0.393896
28 1 0.394585 0.394058 0.397726
29 3 0.398106 0.397793 0.401545
30 1 0.401678 0.401519 0.405352
31 3 0.405294 0.405235 0.409136
32 3 0.407118 0.407091 0.411018
33 1 0.410793 0.410801 0.414765
34 1 0.414488 0.414507 0.418496
35 3 0.418197 0.418203 0.422206
36 3 0.420062 0.420053 0.424052
37 1 0.423812 0.423758 0.427726
38 3 0.427575 0.427469 0.431386
39 2 0.431333 0.43118 0.435024
40 1 0.435086 0.434903 0.43864
41 2 0.438839 0.438639 0.442238
42 1 0.442596 0.44238 0.445822
43 2 0.44636 0.446118 0.449393
44 1 0.450129 0.449846 0.452955
45 3 0.453903 0.453565 0.456516
46 3 0.455788 0.455423 0.458295
47 1 0.459567 0.459148 0.461853
48 3 0.463348 0.462866 0.465395
49 3 0.465244 0.464729 0.467165
50 2 0.46903 0.468452 0.470693
51 2 0.472814 0.47219 0.474215
52 1 0.476594 0.475934 0.477722
53 2 0.480364 0.479684 0.481226
54 2 0.484119 0.483438 0.48474
55 2 0.48787 0.487181 0.488268
56 2 0.491621 0.490902 0.491816
57 3 0.49536 0.494597 0.495396
58 3 0.497224 0.496431 0.497201
59 3 0.499083 0.498252 0.499022
60 2 0.502786 0.501877 0.502696
61 1 0.506465 0.505504 0.506407
62 2 0.510103 0.509135 0.510141
63 3 0.513712 0.512766 0.51387
64 3 0.515514 0.514583 0.515731
65 3 0.517319 0.516407 0.517595
66 3 0.519114 0.518241 0.519469
67 1 0.522659 0.521929 0.523245
68 1 0.526175 0.525652 0.52705
69 3 0.52968 0.529369 0.530847
70 1 0.53322 0.533076 0.534635
71 2 0.536773 0.536755 0.538406
72 1 0.540312 0.540435 0.542198
73 2 0.543776 0.544131 0.546031
74 1 0.547139 0.547855 0.549913
75 2 0.55045 0.551611 0.553826
76 3 0.553781 0.555361 0.557711
77 2 0.557187 0.559053 0.561594
78 1 0.56068 0.562581 0.565564
79 1 0.564384 0.565969 0.569483
80 1 0.568166 0.569544 0.573169
81 2 0.574062 0.571019 0.574883
82 3 0.571514 0.573993 0.579821
83 3 0.569823 0.576688 0.580281
84 1 0.572889 0.571512 0.581749
85 3 0.569994 0.57699 0.58007
86 3 0.572449 0.577018 0.578072
87 2 0.578416 0.574778 0.578817
88 2 0.574647 0.578037 0.575082
89 2 0.578429 0.574841 0.579119
93 3 0.57775 0.581818 0.579983
94 3 0.580802 0.581077 0.580686
95 3 0.57805 0.58196 0.579666
96 2 0.58241 0.578887 0.583243
98 2 0.578545 0.583241 0.586906
100 1 0.578222 0.583647 0.586671
91 1 0.572215 0.582663 0.583224
92 1 0.575584 0.577583 0.584359
90 1 0.575618 0.577384 0.584337
97 3 0.580669 0.577717 0.589184
99 3 0.573554 0.581058 0.59006
ITEM: TIMESTEP
500
ITEM: NUMBER OF ATOMS
100
ITEM: BOX BOUNDS pp pp pp
0.0000000000000000e+00 1.5850000000000000e+02
0.0000000000000000e+00 1.5850000000000000e+02
0.0000000000000000e+00 1.5850000000000000e+02
ITEM: ATOMS id type xs ys zs
1 3 0.353492 0.354805 0.355867
2 2 0.354171 0.350665 0.360651
3 1 0.350481 0.35508 0.358093
4 2 0.348762 0.350338 0.354237
5 1 0.347684 0.353427 0.359597
6 2 0.349494 0.348793 0.35577
7 2 0.355591 0.348511 0.354074
8 3 0.356984 0.354497 0.355616
9 1 0.356734 0.357098 0.361418
10 2 0.36053 0.360808 0.364818
11 3 0.364745 0.364461 0.367776
12 1 0.369184 0.368008 0.370526
13 2 0.367415 0.373947 0.371526
14 2 0.371499 0.376774 0.375431
16 3 0.372463 0.373053 0.375834
15 2 0.370731 0.37528 0.381508
17 3 0.371658 0.370109 0.376553
18 3 0.368614 0.37028 0.377284
19 3 0.371715 0.36985 0.376982
20 1 0.375886 0.370482 0.381711
21 1 0.377261 0.376234 0.379436
22 3 0.37375 0.381496 0.380142
23 1 0.377535 0.376579 0.379403
24 3 0.380652 0.380157 0.383666
25 2 0.384291 0.383902 0.387294
26 3 0.387945 0.387577 0.390981
27 2 0.391587 0.391271 0.394705
28 1 0.395219 0.394938 0.39842
29 3 0.398873 0.398598 0.402151
30 1 0.402534 0.402242 0.405883
31 3 0.406194 0.405886 0.409608
32 3 0.408017 0.407713 0.411464
33 1 0.411656 0.411382 0.415161
34 1 0.415308 0.415079 0.418857
35 3 0.418973 0.418786 0.422544
36 3 0.420811 0.420638 0.42438
37 1 0.424499 0.42434 0.428034
38 3 0.428199 0.42804 0.431674
39 2 0.431905 0.431734 0.435292
40 1 0.435609 0.435416 0.438884
41 2 0.43932 0.439096 0.442465
42 1 0.443035 0.442774 0.446032
43 2 0.446751 0.446451 0.449585
44 1 0.45047 0.45013 0.453124
45 3 0.454201 0.453824 0.456663
46 3 0.456065 0.455668 0.458426
47 1 0.459803 0.459371 0.461956
48 3 0.463532 0.463065 0.465474
49 3 0.465399 0.464916 0.467237
50 2 0.469124 0.468608 0.470756
51 2 0.472861 0.472306 0.474293
52 1 0.476585 0.475986 0.477829
53 2 0.480317 0.479672 0.481389
54 2 0.484041 0.483351 0.48496
55 2 0.487753 0.487025 0.488542
56 2 0.491452 0.490695 0.49213
57 3 0.495136 0.494361 0.495721
58 3 0.496982 0.496206 0.497529
59 3 0.498822 0.498054 0.499345
60 2 0.502479 0.501745 0.502983
61 1 0.506106 0.505416 0.506616
62 2 0.509716 0.509075 0.510256
63 3 0.513339 0.512745 0.513927
64 3 0.515148 0.51458 0.515774
65 3 0.516942 0.516402 0.51762
66 3 0.518726 0.518224 0.519478
67 1 0.522258 0.521861 0.523206
68 1 0.52578 0.525516 0.526965
69 3 0.529287 0.529183 0.530748
70 1 0.532764 0.532837 0.534534
71 2 0.536246 0.536491 0.538341
72 1 0.539733 0.540143 0.542152
73 2 0.543198 0.543806 0.545957
74 1 0.546593 0.547494 0.549772
75 2 0.549928 0.551221 0.553623
76 3 0.553249 0.554977 0.557486
77 2 0.55661 0.558672 0.561371
78 1 0.560107 0.562162 0.565321
79 1 0.563602 0.565588 0.569347
80 1 0.567689 0.56973 0.57185
81 2 0.573663 0.568089 0.572763
82 3 0.569989 0.571664 0.576528
83 3 0.568376 0.574425 0.576798
84 1 0.570803 0.569099 0.578759
85 3 0.568582 0.574732 0.576654
86 3 0.571343 0.574758 0.57514
87 2 0.576967 0.572427 0.577016
88 2 0.574037 0.574952 0.572138
89 2 0.576869 0.57242 0.577307
93 3 0.574603 0.579215 0.577515
94 3 0.577774 0.579232 0.57808
95 3 0.574803 0.579405 0.577331
96 2 0.579751 0.577471 0.580992
98 2 0.575488 0.580954 0.58441
100 1 0.575092 0.581365 0.584246
91 1 0.56912 0.57966 0.581333
92 1 0.573075 0.57493 0.582065
90 1 0.573152 0.574723 0.582058
97 3 0.578141 0.575718 0.586821
99 3 0.571047 0.578226 0.587942
ITEM: TIMESTEP
600
ITEM: NUMBER OF ATOMS
100
ITEM: BOX BOUNDS pp pp pp
0.0000000000000000e+00 1.5850000000000000e+02
0.0000000000000000e+00 1.5850000000000000e+02
0.0000000000000000e+00 1.5850000000000000e+02
ITEM: ATOMS id type xs ys zs
1 3 0.355063 0.356079 0.357035
2 2 0.355647 0.351765 0.361677
3 1 0.352293 0.356599 0.359419
4 2 0.349845 0.35197 0.355832
5 1 0.349589 0.355053 0.361309
6 2 0.350526 0.350489 0.357012
7 2 0.35646 0.349649 0.355013
8 3 0.35852 0.355435 0.356575
9 1 0.358811 0.357991 0.362388
10 2 0.362345 0.361892 0.365881
11 3 0.366583 0.365749 0.368565
12 1 0.370403 0.369709 0.371694
13 2 0.36752 0.375147 0.37308
14 2 0.372133 0.377888 0.376466
16 3 0.372759 0.374273 0.376878
15 2 0.371506 0.37662 0.382617
17 3 0.37314 0.371329 0.377886
18 3 0.370039 0.371362 0.378485
19 3 0.373176 0.371138 0.378328
20 1 0.376401 0.37166 0.383739
21 1 0.378028 0.376715 0.380271
22 3 0.375188 0.382377 0.381003
23 1 0.378269 0.376994 0.380219
24 3 0.380912 0.380665 0.38475
25 2 0.384633 0.384502 0.388169
26 3 0.388361 0.388187 0.391745
27 2 0.392039 0.391866 0.395365
28 1 0.395699 0.395537 0.399003
29 3 0.399361 0.399192 0.402644
30 1 0.403033 0.402818 0.406295
31 3 0.406718 0.406415 0.409953
32 3 0.408559 0.408208 0.411782
33 1 0.412218 0.411818 0.415436
34 1 0.415853 0.415457 0.419079
35 3 0.419483 0.419116 0.422702
36 3 0.421276 0.420951 0.424528
37 1 0.424898 0.424619 0.42814
38 3 0.42852 0.428283 0.431752
39 2 0.432163 0.431939 0.435346
40 1 0.43582 0.435597 0.438918
41 2 0.439498 0.439245 0.442476
42 1 0.443184 0.442879 0.446038
43 2 0.446858 0.44653 0.449593
44 1 0.450544 0.450195 0.453118
45 3 0.454246 0.453884 0.456601
46 3 0.456091 0.455694 0.458385
47 1 0.459779 0.459392 0.461873
48 3 0.463505 0.463038 0.465375
49 3 0.465336 0.464889 0.467132
50 2 0.469025 0.46855 0.470657
51 2 0.472722 0.472204 0.474185
52 1 0.476418 0.475838 0.477737
53 2 0.480106 0.479457 0.481312
54 2 0.483785 0.483075 0.484901
55 2 0.487447 0.486702 0.488501
56 2 0.4911 0.490333 0.492108
57 3 0.494756 0.494 0.495677
58 3 0.496594 0.495811 0.497477
59 3 0.498379 0.497677 0.499275
60 2 0.502004 0.501379 0.502853
61 1 0.505614 0.50508 0.506452
62 2 0.509222 0.508773 0.510065
63 3 0.512847 0.512452 0.513678
64 3 0.514646 0.514284 0.515509
65 3 0.516448 0.516107 0.517346
66 3 0.518234 0.51793 0.519201
67 1 0.521779 0.521575 0.522943
68 1 0.525308 0.525222 0.526707
69 3 0.528821 0.528869 0.530494
70 1 0.532328 0.532512 0.534298
71 2 0.53583 0.536156 0.53811
72 1 0.539311 0.539817 0.541924
73 2 0.542748 0.543513 0.545748
74 1 0.546136 0.547241 0.549592
75 2 0.549512 0.550969 0.553455
76 3 0.552936 0.554648 0.557323
77 2 0.556465 0.558273 0.561148
78 1 0.560109 0.561929 0.564837
79 1 0.563798 0.565691 0.568374
80 1 0.568226 0.5699 0.569979
81 2 0.572627 0.56658 0.573004
82 3 0.569478 0.571649 0.575138
83 3 0.568787 0.574774 0.57513
84 1 0.567996 0.569017 0.577054
85 3 0.568906 0.574922 0.574806
86 3 0.57185 0.574089 0.573889
87 2 0.576132 0.570837 0.57723
88 2 0.575057 0.572734 0.571385
89 2 0.575934 0.570806 0.577458
93 3 0.571553 0.576426 0.576458
94 3 0.57449 0.577555 0.57594
95 3 0.571557 0.576664 0.576211
96 2 0.577797 0.577511 0.577027
98 2 0.573552 0.579277 0.582522
100 1 0.573164 0.57955 0.582407
91 1 0.566761 0.576903 0.581287
92 1 0.571366 0.57279 0.581709
90 1 0.571505 0.57265 0.581724
97 3 0.578089 0.574858 0.582744
99 3 0.570391 0.576803 0.587374
ITEM: TIMESTEP
700
ITEM: NUMBER OF ATOMS
100
ITEM: BOX BOUNDS pp pp pp
0.0000000000000000e+00 1.5850000000000000e+02
0.0000000000000000e+00 1.5850000000000000e+02
0.0000000000000000e+00 1.5850000000000000e+02
ITEM: ATOMS id type xs ys zs
1 3 0.355227 0.356239 0.357169
2 2 0.355827 0.351937 0.361822
3 1 0.352469 0.356768 0.35956
4 2 0.35001 0.352131 0.355993
5 1 0.349773 0.355229 0.361463
6 2 0.350696 0.350648 0.35718
7 2 0.356625 0.349802 0.355166
8 3 0.358682 0.355596 0.356697
9 1 0.358981 0.358162 0.362504
10 2 0.362581 0.362108 0.365865
11 3 0.366595 0.365966 0.368853
12 1 0.370402 0.369882 0.37203
13 2 0.367362 0.375198 0.373497
14 2 0.371998 0.378115 0.37667
16 3 0.372089 0.373918 0.377863
15 2 0.371822 0.377548 0.382969
17 3 0.374005 0.371477 0.377651
18 3 0.37108 0.371668 0.378853
19 3 0.37417 0.371243 0.378217
20 1 0.376188 0.372278 0.384108
21 1 0.378043 0.376655 0.379874
22 3 0.37591 0.382636 0.380465
23 1 0.378267 0.376882 0.379871
24 3 0.380128 0.38012 0.385068
25 2 0.384147 0.38409 0.38799
26 3 0.387961 0.387821 0.391459
27 2 0.391682 0.391519 0.395051
28 1 0.395371 0.395201 0.398685
29 3 0.399051 0.398866 0.402337
30 1 0.402736 0.402509 0.405999
31 3 0.406429 0.406131 0.409668
32 3 0.408274 0.407939 0.411503
33 1 0.411951 0.411565 0.415173
34 1 0.415608 0.415216 0.418832
35 3 0.419254 0.418888 0.422477
36 3 0.42106 0.42073 0.424308
37 1 0.424698 0.424416 0.427939
38 3 0.428335 0.428099 0.431571
39 2 0.431996 0.431772 0.435185
40 1 0.435669 0.435452 0.438778
41 2 0.439368 0.439122 0.442351
42 1 0.44308 0.442767 0.445934
43 2 0.446766 0.446439 0.449516
44 1 0.45047 0.450114 0.453072
45 3 0.454201 0.453878 0.456503
46 3 0.456051 0.455602 0.458392
47 1 0.459733 0.459398 0.461839
48 3 0.463538 0.462993 0.465366
49 3 0.465312 0.464919 0.467127
50 2 0.469043 0.468567 0.470676
51 2 0.472757 0.472247 0.47421
52 1 0.476471 0.475892 0.477779
53 2 0.480176 0.479524 0.481373
54 2 0.483871 0.483153 0.484978
55 2 0.487545 0.486797 0.488592
56 2 0.491208 0.49043 0.492227
57 3 0.494861 0.494147 0.495784
58 3 0.496758 0.495892 0.497602
59 3 0.498484 0.497822 0.499405
60 2 0.502141 0.501517 0.502984
61 1 0.505757 0.505226 0.506595
62 2 0.509372 0.508926 0.510217
63 3 0.513004 0.512611 0.513837
64 3 0.514803 0.514445 0.515673
65 3 0.516605 0.516269 0.517514
66 3 0.518391 0.518094 0.519374
67 1 0.521937 0.521742 0.523121
68 1 0.525467 0.525391 0.526889
69 3 0.528983 0.529039 0.530677
70 1 0.532489 0.532684 0.534479
71 2 0.535984 0.536335 0.53829
72 1 0.539455 0.540005 0.542109
73 2 0.54289 0.543702 0.54594
74 1 0.546297 0.547418 0.549786
75 2 0.549709 0.551126 0.553641
76 3 0.553174 0.554809 0.557483
77 2 0.556711 0.558473 0.561278
78 1 0.560269 0.562122 0.565074
79 1 0.563695 0.565765 0.56898
80 1 0.568389 0.569893 0.569748
81 2 0.571736 0.566837 0.574098
82 3 0.569626 0.572607 0.5754
83 3 0.569182 0.575421 0.57388
84 1 0.566785 0.570407 0.576649
85 3 0.569486 0.575504 0.573649
86 3 0.57227 0.574071 0.573527
87 2 0.576484 0.570921 0.577181
88 2 0.575134 0.572085 0.571239
89 2 0.576263 0.570786 0.577429
93 3 0.571242 0.575415 0.576606
94 3 0.572854 0.577302 0.574788
95 3 0.57136 0.575516 0.576526
96 2 0.577245 0.577791 0.576864
98 2 0.573138 0.578803 0.582172
100 1 0.572736 0.579107 0.582131
91 1 0.56666 0.57554 0.581277
92 1 0.57167 0.571967 0.581976
90 1 0.57182 0.571799 0.581999
97 3 0.57821 0.575078 0.582511
99 3 0.570208 0.576491 0.587255
ITEM: TIMESTEP
800
ITEM: NUMBER OF ATOMS
100
ITEM: BOX BOUNDS pp pp pp
0.0000000000000000e+00 1.5850000000000000e+02
0.0000000000000000e+00 1.5850000000000000e+02
0.0000000000000000e+00 1.5850000000000000e+02
ITEM: ATOMS id type xs ys zs
1 3 0.355272 0.356252 0.357176
2 2 0.355864 0.351938 0.36182
3 1 0.352528 0.356797 0.359588
4 2 0.350024 0.352159 0.356053
5 1 0.349844 0.355283 0.361509
6 2 0.350699 0.350703 0.357207
7 2 0.356609 0.34981 0.355155
8 3 0.35872 0.355583 0.356691
9 1 0.359059 0.35815 0.362507
10 2 0.36249 0.362201 0.365934
11 3 0.366573 0.365969 0.368935
12 1 0.369814 0.368911 0.373506
13 2 0.368984 0.375177 0.373444
14 2 0.37214 0.37904 0.3773
16 3 0.372085 0.373898 0.379159
15 2 0.372789 0.378349 0.383534
17 3 0.374236 0.372373 0.377383
18 3 0.371956 0.372482 0.379519
19 3 0.374669 0.37198 0.377973
20 1 0.377034 0.372721 0.383836
21 1 0.37844 0.37725 0.379557
22 3 0.376774 0.383341 0.380471
23 1 0.378646 0.377456 0.37964
24 3 0.379477 0.379552 0.385629
25 2 0.383455 0.383778 0.3882
26 3 0.38747 0.387496 0.391439
27 2 0.391321 0.391211 0.39488
28 1 0.395072 0.394906 0.398453
29 3 0.398781 0.39858 0.402087
30 1 0.402478 0.402236 0.405747
31 3 0.406175 0.40588 0.409419
32 3 0.408021 0.407702 0.411258
33 1 0.411707 0.411349 0.414935
34 1 0.41538 0.415011 0.418607
35 3 0.41904 0.418689 0.422272
36 3 0.420866 0.420533 0.424102
37 1 0.424517 0.424229 0.427753
38 3 0.428175 0.427925 0.431396
39 2 0.431847 0.431617 0.435023
40 1 0.435536 0.435307 0.438633
41 2 0.439243 0.438988 0.442228
42 1 0.442959 0.44266 0.445822
43 2 0.446668 0.446341 0.449409
44 1 0.450386 0.450039 0.452966
45 3 0.45412 0.453759 0.45648
46 3 0.45598 0.455581 0.458282
47 1 0.459695 0.459315 0.461796
48 3 0.463461 0.462982 0.465325
49 3 0.465295 0.464858 0.467095
50 2 0.469016 0.468543 0.470649
51 2 0.472741 0.472226 0.4742
52 1 0.476464 0.475884 0.477778
53 2 0.480178 0.479527 0.481379
54 2 0.483882 0.483169 0.484993
55 2 0.487566 0.486819 0.488617
56 2 0.491239 0.490474 0.492249
57 3 0.494914 0.49417 0.495834
58 3 0.496772 0.495976 0.497646
59 3 0.498556 0.497861 0.499453
60 2 0.502197 0.501581 0.50305
61 1 0.505827 0.505296 0.506668
62 2 0.509454 0.509003 0.510299
63 3 0.513085 0.512696 0.513937
64 3 0.514892 0.514534 0.515773
65 3 0.516692 0.516365 0.517623
66 3 0.518481 0.518194 0.519488
67 1 0.522036 0.521852 0.523244
68 1 0.525576 0.52551 0.527022
69 3 0.529101 0.529166 0.530817
70 1 0.532613 0.532824 0.534626
71 2 0.536109 0.53649 0.538446
72 1 0.539581 0.540173 0.542276
73 2 0.543027 0.543873 0.546116
74 1 0.546458 0.547581 0.549963
75 2 0.549902 0.551284 0.55381
76 3 0.553379 0.554973 0.557649
77 2 0.55687 0.558649 0.56149
78 1 0.56028 0.562326 0.565401
79 1 0.56342 0.566024 0.569518
80 1 0.568642 0.569561 0.56954
81 2 0.57176 0.566688 0.574179