ITEM: TIMESTEP
100000
ITEM: NUMBER OF ATOMS
100
ITEM: BOX BOUNDS pp pp pp
0.0000000000000000e+00 1.5850000000000000e+02
0.0000000000000000e+00 1.5850000000000000e+02
0.0000000000000000e+00 1.5850000000000000e+02
ITEM: ATOMS id type xs ys zs
3 1 0.310611 0.318556 0.324277
2 1 0.316273 0.316556 0.322351
5 1 0.322076 0.319482 0.326506
4 2 0.315778 0.320016 0.327503
1 3 0.31904 0.321703 0.320124
6 2 0.327179 0.322762 0.327418
7 2 0.327863 0.326266 0.332658
8 3 0.326565 0.330639 0.336844
9 2 0.330667 0.334787 0.339536
10 3 0.333308 0.338787 0.343659
11 2 0.338049 0.341469 0.347009
12 3 0.340539 0.345628 0.351207
13 1 0.345648 0.349209 0.351722
14 1 0.350973 0.351014 0.354329
15 3 0.356683 0.353439 0.353918
16 3 0.357962 0.35287 0.356741
17 2 0.361922 0.35678 0.35966
18 2 0.364861 0.359634 0.364455
19 1 0.369207 0.362575 0.368194
20 1 0.372575 0.366939 0.371174
21 3 0.374759 0.371589 0.375024
22 2 0.377376 0.375661 0.379284
23 1 0.379692 0.379536 0.383867
24 1 0.381992 0.384003 0.387723
25 1 0.384305 0.389153 0.390676
26 3 0.387916 0.391341 0.395194
27 1 0.392098 0.394902 0.398536
28 3 0.395197 0.399946 0.400791
29 2 0.39896 0.40478 0.40228
30 3 0.402213 0.405509 0.407721
31 1 0.406971 0.406847 0.411448
32 2 0.410978 0.409788 0.415326
33 2 0.415239 0.414406 0.416466
34 2 0.416859 0.419809 0.419447
35 3 0.422231 0.421469 0.422329
36 1 0.426868 0.422205 0.426455
37 2 0.429407 0.426098 0.430871
38 1 0.431827 0.429321 0.435518
39 1 0.435687 0.433329 0.438344
40 2 0.439328 0.436663 0.442201
41 3 0.439994 0.439738 0.447707
42 3 0.441976 0.44217 0.447512
43 2 0.4456 0.445642 0.451233
44 3 0.448311 0.449528 0.455455
45 1 0.451528 0.454474 0.457889
46 1 0.455766 0.457755 0.461172
47 1 0.461065 0.460632 0.463255
48 3 0.463858 0.463574 0.468204
49 2 0.4674 0.468188 0.470142
50 3 0.471191 0.473097 0.47104
51 2 0.4755 0.473804 0.47564
52 1 0.47876 0.478776 0.478018
53 3 0.482949 0.479336 0.482799
54 2 0.486625 0.484184 0.484904
55 3 0.489743 0.487388 0.489449
56 2 0.493202 0.490324 0.493683
57 3 0.496879 0.494989 0.49622
58 3 0.498362 0.497074 0.497975
59 1 0.501891 0.500357 0.502169
60 3 0.506605 0.504686 0.502549
61 2 0.507533 0.508101 0.507605
62 2 0.511259 0.512411 0.510053
63 1 0.51349 0.514857 0.515378
64 1 0.516171 0.518904 0.519579
65 1 0.519901 0.523407 0.521438
66 1 0.524744 0.527642 0.521861
67 3 0.529325 0.529146 0.525922
68 1 0.534404 0.531153 0.529157
69 1 0.536589 0.533851 0.534537
70 3 0.541822 0.534494 0.537832
71 3 0.544321 0.536092 0.538901
72 1 0.544672 0.538677 0.544762
73 2 0.545209 0.543687 0.548807
74 3 0.549017 0.54692 0.55249
75 3 0.550368 0.54899 0.554518
76 3 0.550832 0.552021 0.555286
77 1 0.555997 0.555191 0.556767
78 2 0.561145 0.55839 0.558275
79 2 0.564415 0.56036 0.563427
80 3 0.565837 0.56289 0.569035
81 2 0.567201 0.566154 0.574234
82 1 0.567287 0.571718 0.577045
83 3 0.572504 0.574386 0.579428
84 2 0.575048 0.577793 0.584003
85 1 0.578502 0.580984 0.588115
86 1 0.583748 0.584436 0.589017
87 2 0.588839 0.586552 0.592218
88 2 0.592367 0.591155 0.594752
89 3 0.594475 0.597066 0.596114
90 3 0.595419 0.599351 0.598124
91 3 0.59538 0.601447 0.600383
94 3 0.599519 0.604158 0.610134
96 3 0.598795 0.604338 0.610005
97 3 0.59746 0.606743 0.608368
98 1 0.597759 0.609082 0.614393
100 2 0.598414 0.609875 0.614901
92 2 0.600266 0.605153 0.602268
93 3 0.600929 0.606539 0.608371
95 3 0.600428 0.60685 0.608801
99 1 0.603395 0.606295 0.615119
ITEM: TIMESTEP
100100
ITEM: NUMBER OF ATOMS
100
ITEM: BOX BOUNDS pp pp pp
0.0000000000000000e+00 1.5850000000000000e+02
0.0000000000000000e+00 1.5850000000000000e+02
0.0000000000000000e+00 1.5850000000000000e+02
ITEM: ATOMS id type xs ys zs
3 1 0.313963 0.322108 0.327454
2 1 0.317257 0.319756 0.322463
5 1 0.321121 0.321066 0.328161
4 2 0.317405 0.322047 0.332885
1 3 0.315655 0.323926 0.318058
6 2 0.326248 0.324434 0.328523
7 2 0.330677 0.327354 0.332204
8 3 0.331055 0.330093 0.337752
9 2 0.3341 0.335845 0.338955
10 3 0.338072 0.335723 0.34397
11 2 0.339568 0.340547 0.347618
12 3 0.34089 0.346903 0.349432
13 1 0.346688 0.349527 0.350146
14 1 0.351896 0.35243 0.351945
15 3 0.354523 0.355418 0.35704
16 3 0.357258 0.356802 0.35819
17 2 0.360335 0.357357 0.363422
18 2 0.365953 0.360087 0.365531
19 1 0.368178 0.365723 0.366178
20 1 0.37157 0.369662 0.369819
21 3 0.372102 0.372676 0.375715
22 2 0.374365 0.374738 0.381606
23 1 0.378265 0.378524 0.38478
24 1 0.380717 0.383266 0.388652
25 1 0.385666 0.385628 0.391873
26 3 0.389021 0.390201 0.394241
27 1 0.391666 0.394739 0.397631
28 3 0.395399 0.398682 0.401101
29 2 0.400029 0.400528 0.404593
30 3 0.404829 0.404242 0.405023
31 1 0.409024 0.405953 0.410018
32 2 0.413151 0.407758 0.414798
33 2 0.414603 0.412144 0.419216
34 2 0.4192 0.416649 0.419531
35 3 0.422141 0.420399 0.423871
36 1 0.424273 0.422703 0.429679
37 2 0.429328 0.426427 0.43139
38 1 0.432812 0.430929 0.433906
39 1 0.434526 0.434368 0.438908
40 2 0.438016 0.437319 0.443516
41 3 0.443647 0.438945 0.445723
42 3 0.443168 0.441059 0.447946
43 2 0.44583 0.445149 0.452419
44 3 0.448879 0.450464 0.454127
45 1 0.452753 0.45329 0.458367
46 1 0.457256 0.456708 0.461354
47 1 0.460469 0.458714 0.466486
48 3 0.464943 0.462935 0.468402
49 2 0.467966 0.467718 0.471421
50 3 0.471261 0.470928 0.475708
51 2 0.475504 0.475721 0.475618
52 1 0.481316 0.477631 0.476423
53 3 0.483586 0.480541 0.481608
54 2 0.485657 0.482595 0.487407
55 3 0.488771 0.486389 0.49133
56 2 0.492132 0.492014 0.491886
57 3 0.494884 0.495671 0.496395
58 3 0.496412 0.496672 0.49881
59 1 0.500392 0.50038 0.502019
60 3 0.505128 0.504361 0.503655
61 2 0.508675 0.509857 0.503916
62 2 0.510221 0.514248 0.50832
63 1 0.513186 0.518977 0.511906
64 1 0.51685 0.51969 0.516938
65 1 0.521749 0.521824 0.520157
66 1 0.524258 0.52705 0.522644
67 3 0.527814 0.531591 0.525561
68 1 0.533047 0.533588 0.528702
69 1 0.536051 0.531543 0.533767
70 3 0.540037 0.536076 0.535538
71 3 0.540295 0.537467 0.538232
72 1 0.543284 0.540771 0.542804
73 2 0.546088 0.541961 0.548188
74 3 0.546617 0.546328 0.552495
75 3 0.549238 0.547478 0.552362
76 3 0.551167 0.548841 0.554412
77 1 0.555735 0.553018 0.555799
78 1 0.558113 0.557664 0.559978
79 2 0.563389 0.560232 0.562762
80 3 0.566267 0.562793 0.568039
81 2 0.564547 0.566539 0.573332
82 1 0.570582 0.568468 0.574743
83 3 0.572791 0.572119 0.579724
84 2 0.576954 0.576294 0.582876
85 1 0.581386 0.580574 0.584698
86 1 0.585042 0.584616 0.588074
87 2 0.586884 0.589731 0.591228
88 2 0.591287 0.590938 0.595639
89 3 0.591341 0.5967 0.59826
90 3 0.59321 0.599455 0.598951
91 3 0.594058 0.599792 0.601762
94 3 0.599165 0.605874 0.609374
96 3 0.598935 0.606322 0.609572
97 3 0.601747 0.608055 0.610031
98 1 0.604042 0.610685 0.615479
100 2 0.598492 0.609909 0.61619
92 2 0.598078 0.604883 0.602907
93 3 0.601849 0.605131 0.607955
95 3 0.601818 0.607822 0.609358
99 1 0.602194 0.604923 0.616635
ITEM: TIMESTEP
100200
ITEM: NUMBER OF ATOMS
100
ITEM: BOX BOUNDS pp pp pp
0.0000000000000000e+00 1.5850000000000000e+02
0.0000000000000000e+00 1.5850000000000000e+02
0.0000000000000000e+00 1.5850000000000000e+02
ITEM: ATOMS id type xs ys zs
3 1 0.3198 0.324777 0.329516
2 1 0.316355 0.32565 0.324216
5 1 0.320692 0.323868 0.330166
4 2 0.318578 0.324266 0.335968
1 3 0.31312 0.324816 0.318567
6 2 0.326045 0.326872 0.331139
7 2 0.332112 0.328668 0.332725
8 3 0.336715 0.330418 0.336672
9 2 0.338708 0.334848 0.340435
10 3 0.342668 0.336632 0.344645
11 2 0.341983 0.342384 0.34704
12 3 0.347167 0.3458 0.347315
13 1 0.349355 0.350634 0.35082
14 1 0.351275 0.354693 0.355042
15 3 0.354344 0.358611 0.359263
16 3 0.354218 0.355854 0.360714
17 2 0.358233 0.360114 0.362532
18 2 0.363723 0.363421 0.363971
19 1 0.366934 0.367672 0.367474
20 1 0.367893 0.371457 0.371783
21 3 0.371312 0.373026 0.376769
22 2 0.373731 0.376447 0.3812
23 1 0.376308 0.37924 0.38659
24 1 0.382242 0.379719 0.388798
25 1 0.385132 0.384338 0.392066
26 3 0.388412 0.389527 0.39447
27 1 0.393108 0.393627 0.396591
28 3 0.39745 0.394275 0.401278
29 2 0.402399 0.397188 0.40406
30 3 0.406152 0.401142 0.40775
31 1 0.41053 0.405812 0.410195
32 2 0.414242 0.409052 0.413866
33 2 0.417531 0.411511 0.4185
34 2 0.418978 0.413979 0.424064
35 3 0.422381 0.417923 0.426795
36 1 0.425005 0.42326 0.428432
37 2 0.427107 0.4281 0.432352
38 1 0.431497 0.431163 0.435745
39 1 0.435154 0.434348 0.439883
40 2 0.440329 0.436209 0.443357
41 3 0.441853 0.441758 0.446033
42 3 0.444791 0.442468 0.446326
43 2 0.447588 0.445813 0.451086
44 3 0.452382 0.446996 0.454925
45 1 0.454928 0.451235 0.45882
46 1 0.457197 0.454691 0.463822
47 1 0.460762 0.45957 0.464932
48 3 0.463475 0.462956 0.469417
49 2 0.468041 0.464249 0.473296
50 3 0.472451 0.468661 0.473853
51 2 0.476062 0.473578 0.476303
52 1 0.478699 0.476918 0.480952
53 3 0.483695 0.48101 0.480904
54 2 0.48535 0.482337 0.486987
55 3 0.48814 0.487513 0.489495
56 2 0.490227 0.491534 0.49395
57 3 0.493746 0.495263 0.497676
58 3 0.495695 0.497987 0.497588
59 1 0.500231 0.501876 0.499824
60 3 0.501792 0.506537 0.503678
61 2 0.507055 0.509443 0.504466
62 2 0.509986 0.515138 0.506113
63 1 0.514025 0.518896 0.509189
64 1 0.518693 0.521803 0.511988
65 1 0.521032 0.523685 0.517647
66 1 0.524252 0.525225 0.52311
67 3 0.526885 0.530548 0.525251
68 1 0.530625 0.532793 0.529682
69 1 0.536061 0.535407 0.530818
70 3 0.535672 0.537404 0.536879
71 3 0.536519 0.539573 0.538976
72 1 0.542796 0.540802 0.539942
73 2 0.545327 0.542214 0.545504
74 3 0.546979 0.546622 0.549544
75 3 0.5496 0.545243 0.550858
76 3 0.551549 0.546798 0.552901
77 1 0.553617 0.550373 0.557656
78 1 0.556863 0.554982 0.560944
79 2 0.559346 0.559482 0.563813
80 3 0.563211 0.563557 0.566849
81 2 0.568772 0.565659 0.569744
82 1 0.570933 0.566847 0.575524
83 3 0.575187 0.571023 0.578227
84 2 0.57982 0.57486 0.579857
85 1 0.583234 0.579697 0.582301
86 1 0.583562 0.584575 0.586619
87 2 0.585645 0.5893 0.590456
88 2 0.587021 0.593208 0.595057
89 3 0.589716 0.595417 0.600164
90 3 0.590212 0.598201 0.599459
91 3 0.592526 0.598111 0.601686
94 3 0.600816 0.608436 0.60872
96 3 0.603115 0.609987 0.609857
97 3 0.603506 0.608445 0.612612
98 1 0.608811 0.607226 0.615847
100 2 0.597442 0.609906 0.615543
92 2 0.595499 0.602294 0.60504
93 3 0.598807 0.605816 0.60927
95 3 0.603787 0.607242 0.608636
99 1 0.602487 0.606212 0.616581
ITEM: TIMESTEP
100300
ITEM: NUMBER OF ATOMS
100
ITEM: BOX BOUNDS pp pp pp
0.0000000000000000e+00 1.5850000000000000e+02
0.0000000000000000e+00 1.5850000000000000e+02
0.0000000000000000e+00 1.5850000000000000e+02
ITEM: ATOMS id type xs ys zs
3 1 0.321273 0.327219 0.329083
2 1 0.316061 0.330997 0.328752
5 1 0.323028 0.328005 0.330094
4 2 0.319452 0.327254 0.335318
1 3 0.314376 0.325947 0.325642
6 2 0.327846 0.329369 0.334172
7 2 0.333782 0.330476 0.335437
8 3 0.339981 0.332527 0.336392
9 2 0.344195 0.332833 0.341041
10 3 0.344661 0.338853 0.343447
11 2 0.34806 0.343697 0.34552
12 3 0.352776 0.346306 0.34818
13 1 0.351646 0.351137 0.352224
14 1 0.349852 0.355118 0.356534
15 3 0.353714 0.357745 0.36092
16 3 0.352784 0.359424 0.363369
17 2 0.357406 0.362956 0.360791
18 2 0.36002 0.367688 0.364077
19 1 0.363312 0.369053 0.369225
20 1 0.366561 0.371381 0.374649
21 3 0.369873 0.375506 0.378128
22 2 0.374265 0.378081 0.382004
23 1 0.378201 0.379157 0.386608
24 1 0.382329 0.381878 0.390679
25 1 0.386706 0.385754 0.392457
26 3 0.391645 0.387048 0.396016
27 1 0.396523 0.388489 0.399894
28 3 0.400147 0.393891 0.40016
29 2 0.403614 0.39704 0.404478
30 3 0.407681 0.399681 0.408323
31 1 0.409996 0.402569 0.413216
32 2 0.414806 0.406774 0.414384
33 2 0.415677 0.410876 0.418995
34 2 0.420285 0.414563 0.421841
35 3 0.421548 0.41798 0.427225
36 1 0.425806 0.421461 0.431213
37 2 0.428868 0.426995 0.433794
38 1 0.430863 0.431138 0.437962
39 1 0.436318 0.433799 0.440196
40 2 0.43858 0.43969 0.441427
41 3 0.44335 0.440061 0.445966
42 3 0.444318 0.442899 0.445914
43 2 0.44929 0.443525 0.450215
44 3 0.452576 0.446859 0.454346
45 1 0.456183 0.448411 0.459676
46 1 0.45867 0.453886 0.461731
47 1 0.459246 0.458657 0.465959
48 3 0.464143 0.459798 0.470144
49 2 0.468193 0.464818 0.471417
50 3 0.473188 0.467664 0.474281
51 2 0.475795 0.469533 0.479647
52 1 0.477384 0.475608 0.480705
53 3 0.480876 0.479692 0.484479
54 2 0.484876 0.484658 0.484528
55 3 0.487188 0.487808 0.489388
56 2 0.489571 0.490631 0.494642
57 3 0.493059 0.495744 0.496252
58 3 0.49492 0.498213 0.497157
59 1 0.497862 0.503431 0.49868
60 3 0.501252 0.507887 0.501665
61 2 0.504461 0.5119 0.505359
62 2 0.510514 0.514155 0.505697
63 1 0.515691 0.517846 0.506882
64 1 0.518285 0.522695 0.510068
65 1 0.520961 0.525665 0.515117
66 1 0.523857 0.526871 0.520523
67 3 0.52723 0.527083 0.526069
68 1 0.530176 0.532549 0.527965
69 1 0.529328 0.537979 0.530696
70 3 0.532066 0.539057 0.536398
71 3 0.535208 0.539373 0.537009
72 1 0.540776 0.541425 0.539973
73 2 0.545388 0.543808 0.543091
74 3 0.549198 0.544318 0.548046
75 3 0.550163 0.546405 0.550138
76 3 0.550922 0.547427 0.553288
77 1 0.553597 0.55119 0.557636
78 1 0.555853 0.553091 0.563314
79 2 0.558959 0.558179 0.564686
80 3 0.563626 0.560893 0.567401
81 2 0.567799 0.56432 0.571201
82 1 0.573102 0.567412 0.569282
83 3 0.577207 0.570762 0.573327
84 2 0.578836 0.574014 0.578524
85 1 0.580606 0.579033 0.581886
86 1 0.583986 0.583592 0.585602
87 2 0.583595 0.587831 0.590234
88 2 0.585208 0.592143 0.594649
89 3 0.587543 0.596161 0.598289
90 3 0.589828 0.595952 0.600909
91 3 0.590047 0.597809 0.603351
94 3 0.601324 0.606931 0.60867
96 3 0.604889 0.608396 0.609231
97 3 0.604197 0.607972 0.612442
98 1 0.608076 0.603169 0.613833
100 2 0.598017 0.609004 0.615069
92 2 0.593721 0.601728 0.606611
93 3 0.599123 0.605245 0.607052
95 3 0.602193 0.609914 0.609574
99 1 0.60423 0.607748 0.616164
ITEM: TIMESTEP
100400
ITEM: NUMBER OF ATOMS
100
ITEM: BOX BOUNDS pp pp pp
0.0000000000000000e+00 1.5850000000000000e+02
0.0000000000000000e+00 1.5850000000000000e+02
0.0000000000000000e+00 1.5850000000000000e+02
ITEM: ATOMS id type xs ys zs
3 1 0.321656 0.330864 0.328604
2 1 0.317852 0.333746 0.333274
5 1 0.32606 0.332993 0.331521
4 2 0.321377 0.330653 0.334886
1 3 0.315922 0.32794 0.33297
6 2 0.330456 0.331601 0.33589
7 2 0.336135 0.332978 0.33851
8 3 0.341839 0.334842 0.33959
9 2 0.348282 0.335175 0.340717
10 3 0.3489 0.341679 0.341396
11 2 0.354324 0.342032 0.344625
12 3 0.353207 0.346848 0.348891
13 1 0.353352 0.350885 0.353606
14 1 0.351733 0.354851 0.358265
15 3 0.351205 0.359637 0.362661
16 3 0.353827 0.360874 0.361572
17 2 0.356188 0.36664 0.362654
18 2 0.357997 0.369851 0.367395
19 1 0.360607 0.372395 0.372898
20 1 0.366158 0.373736 0.375672
21 3 0.370243 0.376156 0.380038
22 2 0.375076 0.377583 0.383861
23 1 0.378977 0.38217 0.386233
24 1 0.384115 0.384696 0.388842
25 1 0.387277 0.38327 0.394439
26 3 0.393287 0.383984 0.396769
27 1 0.398648 0.386408 0.399701
28 3 0.401473 0.391948 0.40167
29 2 0.40543 0.396387 0.404837
30 3 0.408073 0.399152 0.409917
31 1 0.411861 0.401617 0.414364
32 2 0.413951 0.406191 0.4185
33 2 0.417448 0.411092 0.420553
34 2 0.420279 0.415304 0.423617
35 3 0.423625 0.419601 0.426782
36 1 0.426381 0.422826 0.431622
37 2 0.429609 0.425072 0.436528
38 1 0.43432 0.429043 0.437475
39 1 0.433449 0.435156 0.438736
40 2 0.438014 0.437522 0.442269
41 3 0.443687 0.439674 0.444853
42 3 0.446578 0.439036 0.446009
43 2 0.447084 0.442761 0.451355
44 3 0.452332 0.445966 0.452716
45 1 0.455108 0.449784 0.456943
46 1 0.458358 0.452319 0.461832
47 1 0.462591 0.454185 0.466069
48 3 0.464838 0.459903 0.46784
49 2 0.468587 0.46293 0.471851
50 3 0.471097 0.466208 0.476517
51 2 0.474793 0.470437 0.478912
52 1 0.478939 0.473049 0.482958
53 3 0.478507 0.479094 0.485307
54 2 0.481621 0.484452 0.486736
55 3 0.486293 0.487426 0.489678
56 2 0.490159 0.492367 0.490685
57 3 0.492729 0.496597 0.494842
58 3 0.493516 0.499099 0.496386
59 1 0.496284 0.503823 0.499755
60 3 0.500929 0.507844 0.500058
61 2 0.505249 0.512301 0.501689
62 2 0.509134 0.514163 0.506546
63 1 0.514077 0.518059 0.506883
64 1 0.5174 0.521174 0.511196
65 1 0.521708 0.524974 0.513729
66 1 0.52405 0.529239 0.517722
67 3 0.527096 0.529634 0.5232
68 1 0.525737 0.533538 0.528125
69 1 0.529229 0.534705 0.532945
70 3 0.533988 0.539066 0.533883
71 3 0.533821 0.541667 0.535686
72 1 0.53771 0.542747 0.540762
73 2 0.543061 0.543074 0.543657
74 3 0.547711 0.545602 0.547136
75 3 0.549351 0.546879 0.549565
76 3 0.551369 0.548071 0.5517
77 1 0.552429 0.551093 0.557504
78 1 0.557745 0.55395 0.560558
79 2 0.560525 0.554742 0.5661
80 3 0.563631 0.559391 0.568421
81 2 0.568448 0.563638 0.567281
82 1 0.573413 0.566961 0.570129
83 3 0.575985 0.572558 0.571722
84 2 0.577804 0.576556 0.576275
85 1 0.579485 0.578647 0.582036
86 1 0.579783 0.582691 0.58667
87 2 0.584134 0.58613 0.590357
88 2 0.586572 0.589998 0.594382
89 3 0.587806 0.593682 0.599341
90 3 0.587758 0.596342 0.600548
91 3 0.590372 0.598419 0.600729
94 3 0.599892 0.604939 0.608634
96 3 0.600204 0.605123 0.608748
97 3 0.60303 0.606253 0.608133
98 1 0.604218 0.601253 0.611845
100 2 0.598822 0.607621 0.614833
92 2 0.595898 0.600725 0.603002
93 3 0.597779 0.60245 0.608933
95 3 0.601301 0.607949 0.607958
99 1 0.604953 0.607206 0.613503
ITEM: TIMESTEP
100500
ITEM: NUMBER OF ATOMS
100
ITEM: BOX BOUNDS pp pp pp
0.0000000000000000e+00 1.5850000000000000e+02
0.0000000000000000e+00 1.5850000000000000e+02
0.0000000000000000e+00 1.5850000000000000e+02
ITEM: ATOMS id type xs ys zs
3 1 0.321737 0.334308 0.331297
2 1 0.319978 0.333651 0.337059
5 1 0.33061 0.338103 0.33285
4 2 0.3258 0.335414 0.335903
1 3 0.314749 0.330372 0.337449
6 2 0.333408 0.334702 0.337213
7 2 0.33865 0.335611 0.340856
8 3 0.344505 0.33688 0.342305
9 2 0.34971 0.339594 0.340609
10 3 0.35526 0.342731 0.341093
11 2 0.357728 0.344776 0.346746
12 3 0.352987 0.347116 0.35031
13 1 0.353136 0.350915 0.355416
14 1 0.355326 0.355751 0.359429
15 3 0.354342 0.361975 0.359534
16 3 0.352891 0.36356 0.361792
17 2 0.354424 0.366424 0.367658
18 2 0.357395 0.370845 0.371279
19 1 0.361475 0.374518 0.374359
20 1 0.365441 0.376894 0.378721
21 3 0.370964 0.376395 0.381184
22 2 0.375389 0.380204 0.384284
23 1 0.380395 0.383509 0.3867
24 1 0.385647 0.382519 0.390041
25 1 0.391018 0.382838 0.39322
26 3 0.394666 0.38554 0.397702
27 1 0.398509 0.389461 0.40039
28 3 0.403013 0.389841 0.404657
29 2 0.406253 0.392899 0.408844
30 3 0.409075 0.398253 0.410745
31 1 0.41106 0.40299 0.41411
32 2 0.414626 0.406497 0.418019
33 2 0.417526 0.409219 0.423077
34 2 0.420926 0.413964 0.425299
35 3 0.422635 0.419796 0.427446
36 1 0.427816 0.421983 0.430407
37 2 0.430595 0.424984 0.435109
38 1 0.434851 0.428782 0.438617
39 1 0.43564 0.434779 0.438436
40 2 0.439366 0.433173 0.443161
41 3 0.443839 0.437024 0.445335
42 3 0.443487 0.439851 0.44661
43 2 0.448546 0.442242 0.449493
44 3 0.450477 0.446222 0.454097
45 1 0.455165 0.44943 0.456673
46 1 0.459507 0.450461 0.461048
47 1 0.463477 0.455298 0.462927
48 3 0.466777 0.456477 0.468237
49 2 0.467069 0.460569 0.472949
50 3 0.47009 0.465622 0.475164
51 2 0.473813 0.469726 0.478985
52 1 0.47543 0.474378 0.483361
53 3 0.480113 0.478087 0.485875
54 2 0.482081 0.482561 0.489919
55 3 0.483731 0.48845 0.488297
56 2 0.48834 0.492634 0.48946
57 3 0.491159 0.497411 0.492592
58 3 0.492656 0.499207 0.494874
59 1 0.4965 0.503093 0.498156
60 3 0.500268 0.507756 0.499561
61 2 0.505626 0.510735 0.501052
62 2 0.508768 0.515472 0.504383
63 1 0.511938 0.517819 0.509348
64 1 0.51704 0.521086 0.511037
65 1 0.520758 0.525045 0.51447
66 1 0.523924 0.529103 0.518192
67 3 0.522904 0.534272 0.521788
68 1 0.526982 0.53272 0.526571
69 1 0.531408 0.534148 0.530531
70 3 0.532695 0.538634 0.534548
71 3 0.534988 0.540595 0.535268
72 1 0.538611 0.543063 0.540146
73 2 0.539989 0.545478 0.545872
74 3 0.544669 0.548117 0.548646
75 3 0.547833 0.548065 0.549389
76 3 0.549523 0.547966 0.551911
77 1 0.554431 0.551278 0.553593
78 1 0.558967 0.552213 0.558007
79 2 0.561531 0.555137 0.56292
80 3 0.565926 0.559059 0.565074
81 2 0.569811 0.562198 0.568961
82 1 0.569568 0.568693 0.569939
83 3 0.572842 0.57181 0.573912
84 2 0.576312 0.576708 0.576414
85 1 0.577154 0.580757 0.580869
86 1 0.580926 0.581468 0.585909
87 2 0.582363 0.584312 0.591895
88 2 0.58573 0.589119 0.59489
89 3 0.589046 0.593427 0.597824
90 3 0.592241 0.594285 0.598197
91 3 0.590509 0.596946 0.597577
94 3 0.595075 0.604391 0.607318
96 3 0.598692 0.601313 0.606496
97 3 0.59987 0.601074 0.603473
98 1 0.602145 0.600188 0.609318
100 2 0.599087 0.606011 0.613673
92 2 0.593942 0.597845 0.602939
93 3 0.595161 0.601416 0.607522
95 3 0.598036 0.604275 0.606414
99 1 0.604979 0.605257 0.611905
ITEM: TIMESTEP
100600
ITEM: NUMBER OF ATOMS
100
ITEM: BOX BOUNDS pp pp pp
0.0000000000000000e+00 1.5850000000000000e+02
0.0000000000000000e+00 1.5850000000000000e+02
0.0000000000000000e+00 1.5850000000000000e+02
ITEM: ATOMS id type xs ys zs
3 1 0.323403 0.337511 0.336097
2 1 0.320913 0.333223 0.33978
5 1 0.334811 0.342418 0.334643
4 2 0.329291 0.339575 0.335272
1 3 0.314924 0.333391 0.341722
6 2 0.336841 0.33829 0.339131
7 2 0.342012 0.338299 0.342554
8 3 0.348177 0.340102 0.342882
9 2 0.352107 0.344764 0.342381
10 3 0.357547 0.34234 0.343922
11 2 0.356836 0.347381 0.34775
12 3 0.355633 0.349368 0.353524
13 1 0.355068 0.354535 0.357399
14 1 0.354958 0.360939 0.357918
15 3 0.358007 0.362608 0.363056
16 3 0.354975 0.362495 0.36408
17 2 0.355538 0.367426 0.368264
18 2 0.358043 0.369881 0.373538
19 1 0.361789 0.373959 0.376081
20 1 0.366261 0.376995 0.379465
21 3 0.370598 0.380687 0.382295
22 2 0.376261 0.381541 0.384475
23 1 0.381711 0.380711 0.3878
24 1 0.387078 0.381681 0.390954
25 1 0.392225 0.38516 0.393458
26 3 0.396254 0.388633 0.396979
27 1 0.399243 0.388343 0.40268
28 3 0.402608 0.391361 0.406981
29 2 0.407254 0.391219 0.410922
30 3 0.408663 0.3973 0.412565
31 1 0.411666 0.40228 0.415214
32 2 0.415129 0.407516 0.417095
33 2 0.417246 0.407564 0.422947
34 2 0.419357 0.41271 0.425821
35 3 0.423768 0.416994 0.428397
36 1 0.427635 0.421546 0.430122
37 2 0.431734 0.425139 0.432855
38 1 0.433955 0.42821 0.438069
39 1 0.438492 0.432327 0.439649
40 2 0.442429 0.432874 0.444451
41 3 0.441852 0.437993 0.448065
42 3 0.444935 0.437962 0.447076
43 2 0.448437 0.442983 0.449127
44 3 0.451506 0.44585 0.454088
45 1 0.455919 0.44731 0.458318
46 1 0.459657 0.452278 0.458378
47 1 0.462844 0.453705 0.463828
48 3 0.465592 0.456512 0.468752
49 2 0.469263 0.460771 0.471334
50 3 0.470467 0.464666 0.476192
51 2 0.470766 0.469744 0.479853
52 1 0.475481 0.474011 0.480956
53 3 0.477782 0.476959 0.486136
54 2 0.481624 0.481953 0.486573
55 3 0.483823 0.48723 0.489277
56 2 0.485878 0.493124 0.490967
57 3 0.490402 0.497324 0.492274
58 3 0.492669 0.499611 0.49259
59 1 0.497043 0.50333 0.494872
60 3 0.501193 0.506121 0.499138
61 2 0.503431 0.510977 0.502831
62 2 0.508928 0.513862 0.503749
63 1 0.511066 0.51734 0.508514
64 1 0.514708 0.52203 0.510743
65 1 0.517682 0.524571 0.515584
66 1 0.520807 0.527993 0.519558
67 3 0.522972 0.533013 0.52329
68 1 0.529129 0.535023 0.522687
69 1 0.530681 0.537436 0.528371
70 3 0.53455 0.537242 0.533399
71 3 0.534675 0.538414 0.536374
72 1 0.53725 0.542621 0.540428
73 2 0.539052 0.547357 0.544454
74 3 0.543505 0.548439 0.549148
75 3 0.545662 0.549495 0.551061
76 3 0.548804 0.550151 0.55026
77 1 0.554669 0.549797 0.552568
78 1 0.558988 0.552823 0.555885
79 2 0.564174 0.556354 0.558138
80 3 0.567479 0.558197 0.563012
81 2 0.566827 0.562687 0.56763
82 1 0.568421 0.567516 0.571362
83 3 0.570116 0.572491 0.57553
84 2 0.573175 0.576519 0.579191
85 1 0.577525 0.580659 0.580529
86 1 0.580555 0.581275 0.5861
87 2 0.582372 0.58585 0.590337
88 2 0.58516 0.587787 0.59538
89 3 0.590596 0.590662 0.594265
90 3 0.593432 0.591999 0.59535
91 3 0.591248 0.593864 0.596631
94 3 0.5923 0.603015 0.60596
96 3 0.596596 0.600105 0.604008
97 3 0.597418 0.597538 0.602212
98 1 0.600826 0.597977 0.607399
100 2 0.598465 0.602758 0.610106
92 2 0.589837 0.595501 0.602453
93 3 0.59329 0.600416 0.604626
95 3 0.593648 0.600481 0.604678
99 1 0.604587 0.602707 0.609119
ITEM: TIMESTEP
100700
ITEM: NUMBER OF ATOMS
100
ITEM: BOX BOUNDS pp pp pp
0.0000000000000000e+00 1.5850000000000000e+02
0.0000000000000000e+00 1.5850000000000000e+02
0.0000000000000000e+00 1.5850000000000000e+02
ITEM: ATOMS id type xs ys zs
3 1 0.328652 0.338748 0.341504
2 1 0.322574 0.337725 0.340901
5 1 0.335491 0.344451 0.337126
4 2 0.329685 0.34281 0.336808
1 3 0.318109 0.336375 0.344762
6 2 0.34026 0.34221 0.341088
7 2 0.345805 0.341306 0.343709
8 3 0.351549 0.34401 0.343202
9 2 0.355398 0.349001 0.344872
10 3 0.358096 0.344634 0.348562
11 2 0.355275 0.349484 0.351559
12 3 0.358834 0.353279 0.354811
13 1 0.357702 0.35904 0.357323
14 1 0.356133 0.364594 0.359635
15 3 0.358497 0.360842 0.363814
16 3 0.358658 0.362854 0.366517
17 2 0.357974 0.367867 0.370844
18 2 0.361124 0.371816 0.374963
19 1 0.36461 0.373371 0.380064
20 1 0.36837 0.378214 0.379997
21 3 0.372786 0.382015 0.382767
22 2 0.377364 0.37971 0.386872
23 1 0.383137 0.380304 0.389067
24 1 0.387227 0.384708 0.390035
25 1 0.390084 0.387192 0.394989
26 3 0.396394 0.38805 0.397171
27 1 0.399288 0.387755 0.402651
28 3 0.400828 0.391133 0.407385
29 2 0.406227 0.392029 0.41091
30 3 0.409182 0.395699 0.415407
31 1 0.412084 0.401278 0.415069
32 2 0.414725 0.406314 0.417413
33 2 0.417772 0.408532 0.42272
34 2 0.419953 0.412584 0.426992
35 3 0.425418 0.415118 0.429118
36 1 0.427922 0.420603 0.430975
37 2 0.431591 0.425084 0.433102
38 1 0.436394 0.428014 0.435856
39 1 0.439244 0.428071 0.44161
40 2 0.442032 0.433394 0.443539
41 3 0.444104 0.43789 0.447355
42 3 0.444674 0.437616 0.450632
43 2 0.447909 0.443143 0.451698
44 3 0.454185 0.44418 0.45313
45 1 0.456984 0.447764 0.457518
46 1 0.459151 0.452925 0.460451
47 1 0.462317 0.452987 0.465935
48 3 0.465026 0.458769 0.466182
49 2 0.468679 0.459986 0.471137
50 3 0.469616 0.464119 0.475774
51 2 0.471866 0.469274 0.478549
52 1 0.474573 0.473705 0.482476
53 3 0.477543 0.479504 0.482531
54 2 0.479619 0.484372 0.485731
55 3 0.484713 0.485749 0.489155
56 2 0.486596 0.490904 0.492076
57 3 0.489793 0.496309 0.492039
58 3 0.491565 0.498814 0.491554
59 1 0.496828 0.502439 0.493203
60 3 0.49994 0.505463 0.497726
61 2 0.50323 0.509046 0.501813
62 2 0.50621 0.513169 0.505647
63 1 0.510386 0.517615 0.50742
64 1 0.512513 0.520826 0.512511
65 1 0.515157 0.525233 0.516165
66 1 0.519737 0.528308 0.519633
67 3 0.525083 0.530962 0.520991
68 1 0.526399 0.535122 0.525574
69 1 0.531514 0.538888 0.527363
70 3 0.534184 0.538004 0.533131
71 3 0.535507 0.539908 0.535332
72 1 0.535566 0.542822 0.540724
73 2 0.541575 0.543966 0.543437
74 3 0.543777 0.548787 0.546918
75 3 0.546041 0.550279 0.548736
76 3 0.547854 0.550821 0.551113
77 1 0.553041 0.553194 0.554069
78 1 0.559207 0.554471 0.552859
79 2 0.563521 0.55601 0.557278
80 3 0.563062 0.561491 0.56088
81 2 0.566576 0.563951 0.565419
82 1 0.567361 0.565271 0.571666
83 3 0.568449 0.570295 0.575036
84 2 0.57099 0.575021 0.578795
85 1 0.575499 0.577424 0.582546
86 1 0.578742 0.582369 0.584364
87 2 0.582038 0.585334 0.588564
88 2 0.585283 0.58737 0.593551
89 3 0.591185 0.588956 0.594321
90 3 0.593364 0.590612 0.593297
91 3 0.591831 0.588685 0.595306
94 3 0.591219 0.600176 0.603785
96 3 0.593317 0.598201 0.600003
97 3 0.593401 0.595958 0.601915
98 1 0.59811 0.596847 0.606023
100 2 0.597451 0.599295 0.606919
92 2 0.58812 0.592544 0.598253
93 3 0.590369 0.597276 0.602657
95 3 0.59165 0.597278 0.602532
99 1 0.603724 0.599712 0.605644
ITEM: TIMESTEP
100800
ITEM: NUMBER OF ATOMS
100
ITEM: BOX BOUNDS pp pp pp
0.0000000000000000e+00 1.5850000000000000e+02
0.0000000000000000e+00 1.5850000000000000e+02
0.0000000000000000e+00 1.5850000000000000e+02
ITEM: ATOMS id type xs ys zs
3 1 0.331844 0.339868 0.344609
2 1 0.327302 0.344508 0.344109
5 1 0.33693 0.344915 0.341941
4 2 0.330391 0.345166 0.341487
1 3 0.323632 0.340064 0.346281
6 2 0.342995 0.346981 0.342109
7 2 0.349403 0.346107 0.343526
8 3 0.354642 0.348753 0.344544
9 2 0.358767 0.352067 0.348198
10 3 0.357809 0.348518 0.353488
11 2 0.355764 0.353106 0.357111
12 3 0.359845 0.357515 0.354862
13 1 0.360719 0.363422 0.357492
14 1 0.358745 0.366608 0.362457
15 3 0.358237 0.363235 0.367885
16 3 0.361556 0.363783 0.367617
17 2 0.364299 0.366758 0.373007
18 2 0.364396 0.372219 0.37657
19 1 0.367604 0.373682 0.381642
20 1 0.370081 0.37949 0.381403
21 3 0.37614 0.380536 0.383754
22 2 0.379079 0.378615 0.389252
23 1 0.383948 0.381695 0.390059
24 1 0.386792 0.387498 0.390066
25 1 0.389025 0.388612 0.395999
26 3 0.394802 0.386655 0.397681
27 1 0.398369 0.388532 0.402506
28 3 0.400776 0.390198 0.40774
29 2 0.404219 0.3937 0.4118
30 3 0.409272 0.39457 0.415467
31 1 0.412472 0.400168 0.416572
32 2 0.415355 0.404847 0.419953
33 2 0.417806 0.409997 0.421998
34 2 0.42224 0.41159 0.426775
35 3 0.42599 0.415634 0.43002
36 1 0.430235 0.419806 0.432644
37 2 0.432722 0.424741 0.435796
38 1 0.43922 0.425235 0.435844
39 1 0.43942 0.428971 0.440975
40 2 0.440741 0.433502 0.44502
41 3 0.444369 0.435951 0.449517
42 3 0.446686 0.437479 0.447841
43 2 0.449476 0.439919 0.45293
44 3 0.453782 0.44413 0.454327
45 1 0.457271 0.448887 0.456421
46 1 0.458748 0.450248 0.462459
47 1 0.461397 0.454876 0.466124
48 3 0.466032 0.459448 0.466339
49 2 0.466074 0.462406 0.472133
50 3 0.47067 0.466267 0.474613
51 2 0.474747 0.4688 0.478774
52 1 0.473276 0.47454 0.479931
53 3 0.475956 0.480325 0.480266
54 2 0.479288 0.482737 0.485075
55 3 0.482984 0.486818 0.4882
56 2 0.488254 0.489266 0.49033
57 3 0.490547 0.495202 0.491442
58 3 0.492358 0.497052 0.493224
59 1 0.495406 0.50202 0.496141
60 3 0.499679 0.506487 0.497261
61 2 0.504309 0.509119 0.501027
62 2 0.50452 0.513665 0.505215
63 1 0.506427 0.51609 0.510924
64 1 0.510886 0.519864 0.513301
65 1 0.515119 0.524182 0.515467
66 1 0.520085 0.528083 0.516087
67 3 0.522012 0.531606 0.521137
68 1 0.525642 0.531601 0.526415
69 1 0.529409 0.535398 0.52977
70 3 0.53259 0.540845 0.530876
71 3 0.534003 0.541611 0.533811
72 1 0.538406 0.542023 0.538453
73 2 0.541841 0.543535 0.543405
74 3 0.546698 0.547604 0.544856
75 3 0.547016 0.54917 0.547798
76 3 0.54698 0.552114 0.549226
77 1 0.550863 0.556568 0.551373
78 1 0.556709 0.555527 0.552814
79 2 0.559585 0.558579 0.558056
80 3 0.560633 0.564852 0.559145