# Initialisation file of the particles

10  atoms
9  bonds
0  angles
0  dihedrals

3  atom types
2  bond types
0  angle types
0  dihedral types

0.0000   158.5000 xlo xhi 
0.0000   158.5000 ylo yhi 
0.0000   158.5000 zlo zhi

Masses

1    14.02
2    14.02
3    14.02

Atoms

  1  1  3  0.0  0.0  0.0
  2  1  3  1.5  1.5  1.5
  3  1  2  3.0  3.0  3.0
  4  1  1  4.5  4.5  4.5
  5  1  2  6.0  6.0  6.0
  6  1  1  7.5  7.5  7.5
  7  1  3  9.0  9.0  9.0
  8  1  3  10.5  10.5  10.5
  9  1  1  12.0  12.0  12.0
  10  1  3  13.5  13.5  13.5

Bonds

  1  2  1  2
  2  1  2  3
  3  1  3  4
  4  1  4  5
  5  1  5  6
  6  1  6  7
  7  2  7  8
  8  1  8  9
  9  1  9  10
