# Initialisation file of the particles

100  atoms
99  bonds
0  angles
0  dihedrals

3  atom types
2  bond types
0  angle types
0  dihedral types

0.0000   158.5000 xlo xhi 
0.0000   158.5000 ylo yhi 
0.0000   158.5000 zlo zhi

Atom Type Labels

1    A
2    U
3    M

Bond Type Labels

1    Normal
2    MM

Masses

1    14.02
2    14.02
3    14.02

Atoms # atomic

  1  1  M  0.0  0.0  0.0
  2  1  U  1.5  1.5  1.5
  3  1  A  3.0  3.0  3.0
  4  1  U  4.5  4.5  4.5
  5  1  A  6.0  6.0  6.0
  6  1  U  7.5  7.5  7.5
  7  1  U  9.0  9.0  9.0
  8  1  M  10.5  10.5  10.5
  9  1  A  12.0  12.0  12.0
  10  1  U  13.5  13.5  13.5
  11  1  M  15.0  15.0  15.0
  12  1  A  16.5  16.5  16.5
  13  1  U  18.0  18.0  18.0
  14  1  U  19.5  19.5  19.5
  15  1  U  21.0  21.0  21.0
  16  1  M  22.5  22.5  22.5
  17  1  M  24.0  24.0  24.0
  18  1  M  25.5  25.5  25.5
  19  1  M  27.0  27.0  27.0
  20  1  A  28.5  28.5  28.5
  21  1  A  30.0  30.0  30.0
  22  1  M  31.5  31.5  31.5
  23  1  A  33.0  33.0  33.0
  24  1  M  34.5  34.5  34.5
  25  1  U  36.0  36.0  36.0
  26  1  M  37.5  37.5  37.5
  27  1  U  39.0  39.0  39.0
  28  1  A  40.5  40.5  40.5
  29  1  M  42.0  42.0  42.0
  30  1  A  43.5  43.5  43.5
  31  1  M  45.0  45.0  45.0
  32  1  M  46.5  46.5  46.5
  33  1  A  48.0  48.0  48.0
  34  1  A  49.5  49.5  49.5
  35  1  M  51.0  51.0  51.0
  36  1  M  52.5  52.5  52.5
  37  1  A  54.0  54.0  54.0
  38  1  M  55.5  55.5  55.5
  39  1  U  57.0  57.0  57.0
  40  1  A  58.5  58.5  58.5
  41  1  U  60.0  60.0  60.0
  42  1  A  61.5  61.5  61.5
  43  1  U  63.0  63.0  63.0
  44  1  A  64.5  64.5  64.5
  45  1  M  66.0  66.0  66.0
  46  1  M  67.5  67.5  67.5
  47  1  A  69.0  69.0  69.0
  48  1  M  70.5  70.5  70.5
  49  1  M  72.0  72.0  72.0
  50  1  U  73.5  73.5  73.5
  51  1  U  75.0  75.0  75.0
  52  1  A  76.5  76.5  76.5
  53  1  U  78.0  78.0  78.0
  54  1  U  79.5  79.5  79.5
  55  1  U  81.0  81.0  81.0
  56  1  U  82.5  82.5  82.5
  57  1  M  84.0  84.0  84.0
  58  1  M  85.5  85.5  85.5
  59  1  M  87.0  87.0  87.0
  60  1  U  88.5  88.5  88.5
  61  1  A  90.0  90.0  90.0
  62  1  U  91.5  91.5  91.5
  63  1  M  93.0  93.0  93.0
  64  1  M  94.5  94.5  94.5
  65  1  M  96.0  96.0  96.0
  66  1  M  97.5  97.5  97.5
  67  1  A  99.0  99.0  99.0
  68  1  A  100.5  100.5  100.5
  69  1  M  102.0  102.0  102.0
  70  1  A  103.5  103.5  103.5
  71  1  U  105.0  105.0  105.0
  72  1  A  106.5  106.5  106.5
  73  1  U  108.0  108.0  108.0
  74  1  A  109.5  109.5  109.5
  75  1  U  111.0  111.0  111.0
  76  1  M  112.5  112.5  112.5
  77  1  U  114.0  114.0  114.0
  78  1  A  115.5  115.5  115.5
  79  1  A  117.0  117.0  117.0
  80  1  A  118.5  118.5  118.5
  81  1  U  120.0  120.0  120.0
  82  1  M  121.5  121.5  121.5
  83  1  M  123.0  123.0  123.0
  84  1  A  124.5  124.5  124.5
  85  1  M  126.0  126.0  126.0
  86  1  M  127.5  127.5  127.5
  87  1  U  129.0  129.0  129.0
  88  1  U  130.5  130.5  130.5
  89  1  U  132.0  132.0  132.0
  90  1  A  133.5  133.5  133.5
  91  1  A  135.0  135.0  135.0
  92  1  A  136.5  136.5  136.5
  93  1  M  138.0  138.0  138.0
  94  1  M  139.5  139.5  139.5
  95  1  M  141.0  141.0  141.0
  96  1  U  142.5  142.5  142.5
  97  1  M  144.0  144.0  144.0
  98  1  U  145.5  145.5  145.5
  99  1  M  147.0  147.0  147.0
  100  1  A  148.5  148.5  148.5

Bonds

  1  Normal  1  2
  2  Normal  2  3
  3  Normal  3  4
  4  Normal  4  5
  5  Normal  5  6
  6  Normal  6  7
  7  Normal  7  8
  8  Normal  8  9
  9  Normal  9  10
  10  Normal  10  11
  11  Normal  11  12
  12  Normal  12  13
  13  Normal  13  14
  14  Normal  14  15
  15  Normal  15  16
  16  MM  16  17
  17  MM  17  18
  18  MM  18  19
  19  Normal  19  20
  20  Normal  20  21
  21  Normal  21  22
  22  Normal  22  23
  23  Normal  23  24
  24  Normal  24  25
  25  Normal  25  26
  26  Normal  26  27
  27  Normal  27  28
  28  Normal  28  29
  29  Normal  29  30
  30  Normal  30  31
  31  MM  31  32
  32  Normal  32  33
  33  Normal  33  34
  34  Normal  34  35
  35  MM  35  36
  36  Normal  36  37
  37  Normal  37  38
  38  Normal  38  39
  39  Normal  39  40
  40  Normal  40  41
  41  Normal  41  42
  42  Normal  42  43
  43  Normal  43  44
  44  Normal  44  45
  45  MM  45  46
  46  Normal  46  47
  47  Normal  47  48
  48  MM  48  49
  49  Normal  49  50
  50  Normal  50  51
  51  Normal  51  52
  52  Normal  52  53
  53  Normal  53  54
  54  Normal  54  55
  55  Normal  55  56
  56  Normal  56  57
  57  MM  57  58
  58  MM  58  59
  59  Normal  59  60
  60  Normal  60  61
  61  Normal  61  62
  62  Normal  62  63
  63  MM  63  64
  64  MM  64  65
  65  MM  65  66
  66  Normal  66  67
  67  Normal  67  68
  68  Normal  68  69
  69  Normal  69  70
  70  Normal  70  71
  71  Normal  71  72
  72  Normal  72  73
  73  Normal  73  74
  74  Normal  74  75
  75  Normal  75  76
  76  Normal  76  77
  77  Normal  77  78
  78  Normal  78  79
  79  Normal  79  80
  80  Normal  80  81
  81  Normal  81  82
  82  MM  82  83
  83  Normal  83  84
  84  Normal  84  85
  85  MM  85  86
  86  Normal  86  87
  87  Normal  87  88
  88  Normal  88  89
  89  Normal  89  90
  90  Normal  90  91
  91  Normal  91  92
  92  Normal  92  93
  93  MM  93  94
  94  MM  94  95
  95  Normal  95  96
  96  Normal  96  97
  97  Normal  97  98
  98  Normal  98  99
  99  Normal  99  100
