# Initialisation file of the particles

4  atoms
3  bonds
2  angles
1  dihedrals

3  atom types
2  bond types
2  angle types
2  dihedral types

0.0000   158.5000 xlo xhi 
0.0000   158.5000 ylo yhi 
0.0000   158.5000 zlo zhi

Masses

1    14.02
2    14.02
3    14.02

Atoms # atomic

  1  1  1  0.0  0.0  0.0
  2  1  2  1.5  1.5  1.5
  3  1  3  3.0  3.0  3.0
  4  1  3  4.5  4.5  4.5


Bonds

  1  2  1  2
  2  1  2  3
  3  1  3  4

Angles

  1  1  1  2  3
  2  1  2  3  4

Dihedrals

  1  1  1  2  3  4
