# Initialisation file of the particles

100  atoms
99  bonds
0  angles
0  dihedrals

3  atom types
2  bond types
0  angle types
0  dihedral types

0.0000   158.5000 xlo xhi 
0.0000   158.5000 ylo yhi 
0.0000   158.5000 zlo zhi

Masses

1    14.02
2    14.02
3    14.02

Atoms # atomic

  1  1  3  0.0  0.0  0.0
  2  1  1  1.5  1.5  1.5
  3  1  1  3.0  3.0  3.0
  4  1  2  4.5  4.5  4.5
  5  1  1  6.0  6.0  6.0
  6  1  2  7.5  7.5  7.5
  7  1  2  9.0  9.0  9.0
  8  1  3  10.5  10.5  10.5
  9  1  2  12.0  12.0  12.0
  10  1  3  13.5  13.5  13.5
  11  1  2  15.0  15.0  15.0
  12  1  3  16.5  16.5  16.5
  13  1  1  18.0  18.0  18.0
  14  1  1  19.5  19.5  19.5
  15  1  3  21.0  21.0  21.0
  16  1  3  22.5  22.5  22.5
  17  1  2  24.0  24.0  24.0
  18  1  2  25.5  25.5  25.5
  19  1  1  27.0  27.0  27.0
  20  1  1  28.5  28.5  28.5
  21  1  3  30.0  30.0  30.0
  22  1  2  31.5  31.5  31.5
  23  1  1  33.0  33.0  33.0
  24  1  1  34.5  34.5  34.5
  25  1  1  36.0  36.0  36.0
  26  1  3  37.5  37.5  37.5
  27  1  1  39.0  39.0  39.0
  28  1  3  40.5  40.5  40.5
  29  1  2  42.0  42.0  42.0
  30  1  3  43.5  43.5  43.5
  31  1  1  45.0  45.0  45.0
  32  1  2  46.5  46.5  46.5
  33  1  2  48.0  48.0  48.0
  34  1  2  49.5  49.5  49.5
  35  1  3  51.0  51.0  51.0
  36  1  1  52.5  52.5  52.5
  37  1  2  54.0  54.0  54.0
  38  1  1  55.5  55.5  55.5
  39  1  1  57.0  57.0  57.0
  40  1  2  58.5  58.5  58.5
  41  1  3  60.0  60.0  60.0
  42  1  3  61.5  61.5  61.5
  43  1  2  63.0  63.0  63.0
  44  1  3  64.5  64.5  64.5
  45  1  1  66.0  66.0  66.0
  46  1  1  67.5  67.5  67.5
  47  1  1  69.0  69.0  69.0
  48  1  3  70.5  70.5  70.5
  49  1  2  72.0  72.0  72.0
  50  1  3  73.5  73.5  73.5
  51  1  2  75.0  75.0  75.0
  52  1  1  76.5  76.5  76.5
  53  1  3  78.0  78.0  78.0
  54  1  2  79.5  79.5  79.5
  55  1  3  81.0  81.0  81.0
  56  1  2  82.5  82.5  82.5
  57  1  3  84.0  84.0  84.0
  58  1  3  85.5  85.5  85.5
  59  1  1  87.0  87.0  87.0
  60  1  3  88.5  88.5  88.5
  61  1  2  90.0  90.0  90.0
  62  1  2  91.5  91.5  91.5
  63  1  1  93.0  93.0  93.0
  64  1  1  94.5  94.5  94.5
  65  1  1  96.0  96.0  96.0
  66  1  1  97.5  97.5  97.5
  67  1  3  99.0  99.0  99.0
  68  1  1  100.5  100.5  100.5
  69  1  1  102.0  102.0  102.0
  70  1  3  103.5  103.5  103.5
  71  1  3  105.0  105.0  105.0
  72  1  1  106.5  106.5  106.5
  73  1  2  108.0  108.0  108.0
  74  1  3  109.5  109.5  109.5
  75  1  3  111.0  111.0  111.0
  76  1  3  112.5  112.5  112.5
  77  1  1  114.0  114.0  114.0
  78  1  2  115.5  115.5  115.5
  79  1  2  117.0  117.0  117.0
  80  1  3  118.5  118.5  118.5
  81  1  2  120.0  120.0  120.0
  82  1  1  121.5  121.5  121.5
  83  1  3  123.0  123.0  123.0
  84  1  2  124.5  124.5  124.5
  85  1  1  126.0  126.0  126.0
  86  1  1  127.5  127.5  127.5
  87  1  2  129.0  129.0  129.0
  88  1  2  130.5  130.5  130.5
  89  1  3  132.0  132.0  132.0
  90  1  3  133.5  133.5  133.5
  91  1  3  135.0  135.0  135.0
  92  1  2  136.5  136.5  136.5
  93  1  3  138.0  138.0  138.0
  94  1  3  139.5  139.5  139.5
  95  1  3  141.0  141.0  141.0
  96  1  3  142.5  142.5  142.5
  97  1  3  144.0  144.0  144.0
  98  1  1  145.5  145.5  145.5
  99  1  1  147.0  147.0  147.0
  100  1  2  148.5  148.5  148.5

Bonds

  1  1  1  2
  2  1  2  3
  3  1  3  4
  4  1  4  5
  5  1  5  6
  6  1  6  7
  7  1  7  8
  8  1  8  9
  9  1  9  10
  10  1  10  11
  11  1  11  12
  12  1  12  13
  13  1  13  14
  14  1  14  15
  15  2  15  16
  16  1  16  17
  17  1  17  18
  18  1  18  19
  19  1  19  20
  20  1  20  21
  21  1  21  22
  22  1  22  23
  23  1  23  24
  24  1  24  25
  25  1  25  26
  26  1  26  27
  27  1  27  28
  28  1  28  29
  29  1  29  30
  30  1  30  31
  31  1  31  32
  32  1  32  33
  33  1  33  34
  34  1  34  35
  35  1  35  36
  36  1  36  37
  37  1  37  38
  38  1  38  39
  39  1  39  40
  40  1  40  41
  41  2  41  42
  42  1  42  43
  43  1  43  44
  44  1  44  45
  45  1  45  46
  46  1  46  47
  47  1  47  48
  48  1  48  49
  49  1  49  50
  50  1  50  51
  51  1  51  52
  52  1  52  53
  53  1  53  54
  54  1  54  55
  55  1  55  56
  56  1  56  57
  57  2  57  58
  58  1  58  59
  59  1  59  60
  60  1  60  61
  61  1  61  62
  62  1  62  63
  63  1  63  64
  64  1  64  65
  65  1  65  66
  66  1  66  67
  67  1  67  68
  68  1  68  69
  69  1  69  70
  70  2  70  71
  71  1  71  72
  72  1  72  73
  73  1  73  74
  74  2  74  75
  75  2  75  76
  76  1  76  77
  77  1  77  78
  78  1  78  79
  79  1  79  80
  80  1  80  81
  81  1  81  82
  82  1  82  83
  83  1  83  84
  84  1  84  85
  85  1  85  86
  86  1  86  87
  87  1  87  88
  88  1  88  89
  89  2  89  90
  90  2  90  91
  91  1  91  92
  92  1  92  93
  93  2  93  94
  94  2  94  95
  95  2  95  96
  96  2  96  97
  97  1  97  98
  98  1  98  99
  99  1  99  100
