LAMMPS (2 Aug 2023 - Update 2)
# VARIABLES
variable fname index InitialFile.txt
variable simname index InitialFile
variable lj_epsilon equal 1.0
variable lj_sigma equal 2.0

# Initialization
units		real
boundary	    p p p
atom_style	bond
#log 		log.${simname}.txt
read_data	InitialFile.txt
Reading data file ...
  orthogonal box = (0 0 0) to (158.5 158.5 158.5)
  1 by 1 by 1 MPI processor grid
  reading atom labelmap ...
  reading bond labelmap ...
WARNING: Atom style in data file atomic differs from currently defined atom style bond (src/src/read_data.cpp:621)
  reading atoms ...
  100 atoms
  scanning bonds ...
  1 = max bonds/atom
  reading bonds ...
  99 bonds
Finding 1-2 1-3 1-4 neighbors ...
  special bond factors lj:    0        0        0       
  special bond factors coul:  0        0        0       
     2 = max # of 1-2 neighbors
     2 = max # of 1-3 neighbors
     4 = max # of 1-4 neighbors
     6 = max # of special neighbors
  special bonds CPU = 0.026 seconds
  read_data CPU = 0.083 seconds

# Dreiding potential information
neighbor	2.0 bin
neigh_modify every 1 delay 0 check yes

bond_style      harmonic
bond_coeff	1 350 1
bond_coeff	2 700 0.5
special_bonds lj/coul 0.0 0.0 0.5
Finding 1-2 1-3 1-4 neighbors ...
  special bond factors lj:    0        0        0.5     
  special bond factors coul:  0        0        0.5     
     2 = max # of 1-2 neighbors
     2 = max # of 1-3 neighbors
     4 = max # of 1-4 neighbors
     6 = max # of special neighbors
  special bonds CPU = 0.000 seconds


pair_style	lj/cut 10.5
pair_coeff	* * 2 1.0 10.5
pair_coeff	3 3 4 0.5 10.5

compute csym all centro/atom fcc
compute peratom all pe/atom


#####################################################
# Equilibration (Brownian dynamics at 300 K)

velocity 	all create 300.0 1231
fix		1 all nve/limit 0.05
fix 2 all brownian 30.0 12908410 gamma_t 3.0 rng gaussian # Compute a correct 300K simulation, check the value for gamma_t
thermo_style	custom step temp
thermo          10000
timestep	1
run		100000
Generated 0 of 3 mixed pair_coeff terms from geometric mixing rule
WARNING: One or more atoms are time integrated more than once (src/src/modify.cpp:289)
Neighbor list info ...
  update: every = 1 steps, delay = 0 steps, check = yes
  max neighbors/atom: 2000, page size: 100000
  master list distance cutoff = 12.5
  ghost atom cutoff = 12.5
  binsize = 6.25, bins = 26 26 26
  2 neighbor lists, perpetual/occasional/extra = 1 1 0
  (1) pair lj/cut, perpetual
      attributes: half, newton on
      pair build: half/bin/newton
      stencil: half/bin/3d
      bin: standard
  (2) compute centro/atom, occasional
      attributes: full, newton on
      pair build: full/bin
      stencil: full/bin/3d
      bin: standard
Per MPI rank memory allocation (min/avg/max) = 5.371 | 5.371 | 5.371 Mbytes
   Step          Temp     
         0   300          
     10000   294.79451    
     20000   283.90263    
     30000   326.97571    
     40000   264.86773    
     50000   295.33223    
     60000   296.33508    
     70000   327.41118    
     80000   275.48336    
     90000   333.16427    
    100000   327.8743     
Loop time of 2.3549 on 1 procs for 100000 steps with 100 atoms

Performance: 3668.942 ns/day, 0.007 hours/ns, 42464.612 timesteps/s, 4.246 Matom-step/s
92.4% CPU use with 1 MPI tasks x no OpenMP threads

MPI task timing breakdown:
Section |  min time  |  avg time  |  max time  |%varavg| %total
---------------------------------------------------------------
Pair    | 1.2421     | 1.2421     | 1.2421     |   0.0 | 52.74
Bond    | 0.14515    | 0.14515    | 0.14515    |   0.0 |  6.16
Neigh   | 0.0055275  | 0.0055275  | 0.0055275  |   0.0 |  0.23
Comm    | 0.020675   | 0.020675   | 0.020675   |   0.0 |  0.88
Output  | 0.00021548 | 0.00021548 | 0.00021548 |   0.0 |  0.01
Modify  | 0.87784    | 0.87784    | 0.87784    |   0.0 | 37.28
Other   |            | 0.0634     |            |       |  2.69

Nlocal:            100 ave         100 max         100 min
Histogram: 1 0 0 0 0 0 0 0 0 0
Nghost:              0 ave           0 max           0 min
Histogram: 1 0 0 0 0 0 0 0 0 0
Neighs:           1235 ave        1235 max        1235 min
Histogram: 1 0 0 0 0 0 0 0 0 0
FullNghs:            0 ave           0 max           0 min
Histogram: 1 0 0 0 0 0 0 0 0 0

Total # of neighbors = 1235
Ave neighs/atom = 12.35
Ave special neighs/atom = 5.88
Neighbor list builds = 116
Dangerous builds = 0
unfix 1
unfix 2

#####################################################
# Define Settings
compute eng all pe/atom
#compute eatoms all reduce sum c_eng

#####################################################
# Minimization

dump mydmp all atom 100 dump.lammpstrj

reset_timestep 0
fix 1 all nvt temp 300.0 300.0 100.0
thermo 20
#thermo_style custom step pe lx ly lz press pxx pyy pzz c_eatoms
min_style cg
minimize 1e-25 1e-25 500000 1000000
Generated 0 of 3 mixed pair_coeff terms from geometric mixing rule
Per MPI rank memory allocation (min/avg/max) = 6.496 | 6.496 | 6.496 Mbytes
   Step          Temp     
         0   327.8743     
        20   327.8743     
        40   327.8743     
        60   327.8743     
        80   327.8743     
       100   327.8743     
       120   327.8743     
       140   327.8743     
       160   327.8743     
       180   327.8743     
       200   327.8743     
       220   327.8743     
       240   327.8743     
       260   327.8743     
       280   327.8743     
       300   327.8743     
       320   327.8743     
       340   327.8743     
       360   327.8743     
       380   327.8743     
       400   327.8743     
       420   327.8743     
       440   327.8743     
       460   327.8743     
       480   327.8743     
       500   327.8743     
       520   327.8743     
       540   327.8743     
       560   327.8743     
       580   327.8743     
       600   327.8743     
       620   327.8743     
       640   327.8743     
       660   327.8743     
       680   327.8743     
       700   327.8743     
       720   327.8743     
       740   327.8743     
       760   327.8743     
       780   327.8743     
       800   327.8743     
       820   327.8743     
       840   327.8743     
       860   327.8743     
       880   327.8743     
       900   327.8743     
       914   327.8743     
Loop time of 0.118569 on 1 procs for 914 steps with 100 atoms

86.7% CPU use with 1 MPI tasks x no OpenMP threads

Minimization stats:
  Stopping criterion = energy tolerance
  Energy initial, next-to-last, final = 
     -122.957497787298  -288.985595858102  -288.985595858102
  Force two-norm initial, final = 171.96138 8.5309679
  Force max component initial, final = 32.922014 5.5278845
  Final line search alpha, max atom move = 0.0011306314 0.00625
  Iterations, force evaluations = 914 2920

MPI task timing breakdown:
Section |  min time  |  avg time  |  max time  |%varavg| %total
---------------------------------------------------------------
Pair    | 0.10061    | 0.10061    | 0.10061    |   0.0 | 84.85
Bond    | 0.007294   | 0.007294   | 0.007294   |   0.0 |  6.15
Neigh   | 0.00032357 | 0.00032357 | 0.00032357 |   0.0 |  0.27
Comm    | 0.00051466 | 0.00051466 | 0.00051466 |   0.0 |  0.43
Output  | 0.0040099  | 0.0040099  | 0.0040099  |   0.0 |  3.38
Modify  | 0          | 0          | 0          |   0.0 |  0.00
Other   |            | 0.005818   |            |       |  4.91

Nlocal:            100 ave         100 max         100 min
Histogram: 1 0 0 0 0 0 0 0 0 0
Nghost:              0 ave           0 max           0 min
Histogram: 1 0 0 0 0 0 0 0 0 0
Neighs:           1351 ave        1351 max        1351 min
Histogram: 1 0 0 0 0 0 0 0 0 0
FullNghs:            0 ave           0 max           0 min
Histogram: 1 0 0 0 0 0 0 0 0 0

Total # of neighbors = 1351
Ave neighs/atom = 13.51
Ave special neighs/atom = 5.88
Neighbor list builds = 6
Dangerous builds = 0

unfix 1

molecule mol molTemplate.txt
Read molecule template mol:
  1 molecules
  0 fragments
  5 atoms with max type 3
  4 bonds with max type 2
  0 angles with max type 0
  0 dihedrals with max type 0
  0 impropers with max type 0
molecule mol2 molTemplate2.txt
Read molecule template mol2:
  1 molecules
  0 fragments
  5 atoms with max type 3
  4 bonds with max type 2
  0 angles with max type 0
  0 dihedrals with max type 0
  0 impropers with max type 0


#####################################################
# Do the reactions
fix 3 all bond/react stabilization yes statted_grp .03   react reac all 1 0 4 mol mol2 map.txt molecule intra
dynamic group bond_react_MASTER_group defined
dynamic group statted_grp_REACT defined

fix 1 statted_grp_REACT nvt temp 300 300 100

thermo_style custom step temp f_3[1]

run 100000

CITE-CITE-CITE-CITE-CITE-CITE-CITE-CITE-CITE-CITE-CITE-CITE-CITE

Your simulation uses code contributions which should be cited:

- fix bond/react: reacter.org doi:10.1016/j.polymer.2017.09.038, doi:10.1021/acs.macromol.0c02012

@Article{Gissinger17,
 author = {J. R. Gissinger and B. D. Jensen and K. E. Wise},
 title = {Modeling Chemical Reactions in Classical Molecular Dynamics Simulations},
 journal = {Polymer},
 year =    2017,
 volume =  128,
 pages =   {211--217}
}

@Article{Gissinger20,
 author = {J. R. Gissinger, B. D. Jensen, K. E. Wise},
 title = {{REACTER}: A Heuristic Method for Reactive Molecular Dynamics},
 journal = {Macromolecules},
 year =    2020,
 volume =  53,
 number =  22,
 pages =   {9953--9961}
}

CITE-CITE-CITE-CITE-CITE-CITE-CITE-CITE-CITE-CITE-CITE-CITE-CITE

Generated 0 of 3 mixed pair_coeff terms from geometric mixing rule
Neighbor list info ...
  update: every = 1 steps, delay = 0 steps, check = yes
  max neighbors/atom: 2000, page size: 100000
  master list distance cutoff = 12.5
  ghost atom cutoff = 12.5
  binsize = 6.25, bins = 26 26 26
  3 neighbor lists, perpetual/occasional/extra = 1 2 0
  (1) pair lj/cut, perpetual
      attributes: half, newton on
      pair build: half/bin/newton
      stencil: half/bin/3d
      bin: standard
  (2) compute centro/atom, occasional
      attributes: full, newton on
      pair build: full/bin
      stencil: full/bin/3d
      bin: standard
  (3) fix bond/react, occasional, copy from (1)
      attributes: half, newton on
      pair build: copy
      stencil: none
      bin: none
Per MPI rank memory allocation (min/avg/max) = 6.749 | 6.749 | 6.749 Mbytes
   Step          Temp          f_3[1]    
       914   327.8743       0            
       920   207.31396      0            
       940   172.44312      0            
       960   171.15024      0            
       980   223.52675      0            
      1000   214.19142      0            
      1020   202.57878      0            
      1040   267.2981       0            
      1060   241.10239      0            
      1080   240.75756      0            
      1100   261.27888      0            
      1120   292.03187      0            
      1140   294.01681      0            
      1160   322.36737      0            
      1180   296.57435      0            
      1200   309.43665      0            
      1220   329.03609      0            
      1240   316.21831      0            
      1260   349.26276      0            
      1280   343.96664      0            
      1300   347.00835      0            
      1320   330.01609      0            
      1340   314.64444      0            
      1360   310.50351      0            
      1380   306.97589      0            
      1400   306.93558      0            
      1420   297.53224      0            
      1440   298.38979      0            
      1460   326.93087      0            
      1480   313.1914       0            
      1500   320.95778      0            
      1520   343.41045      0            
      1540   324.8538       0            
      1560   297.84565      0            
      1580   304.30566      0            
      1600   300.07192      0            
      1620   310.61831      0            
      1640   312.29774      0            
      1660   309.08842      0            
      1680   313.32012      0            
      1700   305.33388      0            
      1720   296.91871      0            
      1740   303.22455      0            
      1760   314.69953      0            
      1780   313.5803       0            
      1800   323.5943       0            
      1820   305.43047      0            
      1840   318.25387      0            
      1860   319.97503      0            
      1880   344.20119      0            
      1900   345.37105      0            
      1920   332.13394      0            
      1940   345.96388      0            
      1960   354.72633      0            
      1980   353.52098      0            
      2000   331.61625      0            
      2020   324.0885       0            
      2040   307.06977      0            
      2060   321.88502      0            
      2080   344.39521      0            
      2100   367.43344      0            
      2120   349.3739       0            
      2140   347.51209      0            
      2160   382.48914      0            
      2180   388.2962       0            
      2200   372.82937      0            
      2220   383.87064      0            
      2240   370.86046      0            
      2260   365.62843      0            
      2280   335.47593      0            
      2300   341.47584      0            
      2320   380.4657       0            
      2340   393.24517      0            
      2360   393.40614      0            
      2380   404.07724      0            
      2400   384.3746       0            
      2420   366.60032      0            
      2440   412.37364      0            
      2460   429.94281      0            
      2480   336.42934      0            
      2500   359.67657      0            
      2520   350.88292      0            
      2540   321.07148      0            
      2560   329.46192      0            
      2580   336.96435      0            
      2600   314.15233      0            
      2620   276.2901       0            
      2640   295.87847      0            
      2660   339.74506      0            
      2680   336.01336      0            
      2700   337.66955      0            
      2720   333.86234      0            
      2740   352.69845      0            
      2760   345.25551      0            
      2780   360.47558      0            
      2800   404.61057      0            
      2820   397.97378      0            
      2840   381.8572       0            
      2860   338.38618      0            
      2880   354.48938      0            
      2900   369.25195      0            
      2920   359.37926      0            
      2940   312.20525      0            
      2960   301.47672      0            
      2980   315.21809      0            
      3000   309.19927      0            
      3020   321.90483      0            
      3040   272.17198      0            
      3060   292.44008      0            
      3080   312.38772      0            
      3100   315.23093      0            
      3120   327.53646      0            
      3140   365.87898      0            
      3160   363.48904      0            
      3180   353.33806      0            
      3200   358.21659      0            
      3220   322.61356      0            
      3240   319.77594      0            
      3260   310.92647      0            
      3280   340.50732      0            
      3300   342.16903      0            
      3320   343.18633      0            
      3340   304.8594       0            
      3360   312.94018      0            
      3380   344.57698      0            
      3400   335.10304      0            
      3420   335.04381      0            
      3440   278.54069      0            
      3460   301.8365       0            
      3480   294.2726       0            
      3500   296.86981      0            
      3520   291.15279      0            
      3540   294.80371      0            
      3560   305.25624      0            
      3580   385.76507      0            
      3600   369.03815      0            
      3620   378.86873      0            
      3640   348.6783       0            
      3660   336.37438      0            
      3680   341.80472      0            
      3700   351.39249      0            
      3720   348.37109      0            
      3740   347.90117      0            
      3760   335.85646      0            
      3780   323.96901      0            
      3800   311.95374      0            
      3820   336.47179      0            
      3840   309.95294      0            
      3860   298.84968      0            
      3880   295.6248       0            
      3900   291.10031      0            
      3920   288.14412      0            
      3940   315.38668      0            
      3960   328.66503      0            
      3980   298.59016      0            
      4000   277.59266      0            
      4020   308.05125      0            
      4040   307.08337      0            
      4060   305.29456      0            
      4080   295.7231       0            
      4100   308.1545       0            
      4120   332.99846      0            
      4140   286.11354      0            
      4160   330.7025       0            
      4180   303.96505      0            
      4200   306.46184      0            
      4220   298.44716      0            
      4240   319.43983      0            
      4260   345.1275       0            
      4280   306.00988      0            
      4300   317.4454       0            
      4320   312.76027      0            
      4340   288.28189      0            
      4360   309.4392       0            
      4380   291.17643      0            
      4400   311.08143      0            
      4420   296.10954      0            
      4440   349.35859      0            
      4460   384.7576       0            
      4480   361.23633      0            
      4500   356.32656      0            
      4520   313.43439      0            
      4540   372.67922      0            
      4560   326.01187      0            
      4580   357.43167      0            
      4600   348.40887      0            
      4620   357.66407      0            
      4640   307.99223      0            
      4660   341.79634      0            
      4680   338.42876      0            
      4700   310.95025      0            
      4720   357.80988      0            
      4740   336.59643      0            
      4760   327.7838       0            
      4780   355.16391      0            
      4800   336.99819      0            
      4820   322.67693      0            
      4840   324.53774      0            
      4860   270.64782      0            
      4880   304.07981      0            
      4900   304.80816      0            
      4920   311.9545       0            
      4940   312.37264      0            
      4960   325.11802      0            
      4980   287.51968      0            
      5000   314.33412      0            
      5020   285.22099      0            
      5040   312.58773      0            
      5060   332.20563      0            
      5080   314.47778      0            
      5100   313.38283      0            
      5120   277.82222      0            
      5140   278.1924       0            
      5160   281.49777      0            
      5180   289.12972      0            
      5200   303.15318      0            
      5220   277.81195      0            
      5240   279.69715      0            
      5260   294.96782      0            
      5280   314.91153      0            
      5300   282.47182      0            
      5320   324.40017      0            
      5340   312.52111      0            
      5360   303.06519      0            
      5380   306.439        0            
      5400   326.059        0            
      5420   281.57254      0            
      5440   330.50314      0            
      5460   293.5841       0            
      5480   304.61064      0            
      5500   298.90371      0            
      5520   316.92646      0            
      5540   310.98098      0            
      5560   298.60856      0            
      5580   289.38006      0            
      5600   286.76483      0            
      5620   289.30011      0            
      5640   309.84749      0            
      5660   307.21814      0            
      5680   300.6189       0            
      5700   291.01048      0            
      5720   310.8286       0            
      5740   283.43105      0            
      5760   303.10194      0            
      5780   272.39697      0            
      5800   302.3299       0            
      5820   313.07264      0            
      5840   344.08981      0            
      5860   316.9323       0            
      5880   339.36065      0            
      5900   331.58425      0            
      5920   325.32885      0            
      5940   355.48525      0            
      5960   394.03913      0            
      5980   393.95061      0            
      6000   376.1039       0            
      6020   357.21755      0            
      6040   393.57699      0            
      6060   353.0473       0            
      6080   367.2639       0            
      6100   456.67865      0            
      6120   375.76805      0            
      6140   383.53168      0            
      6160   453.54156      0            
      6180   442.86519      0            
      6200   401.80105      0            
      6220   418.12166      0            
      6240   422.12546      0            
      6260   385.37719      0            
      6280   412.05133      0            
      6300   404.89562      0            
      6320   392.79419      0            
      6340   366.5131       0            
      6360   340.80035      0            
      6380   356.18439      0            
      6400   359.44218      0            
      6420   352.24573      0            
      6440   357.92054      0            
      6460   362.54665      0            
      6480   358.50581      0            
      6500   328.37753      0            
      6520   313.95554      0            
      6540   316.8822       0            
      6560   303.39118      0            
      6580   326.69679      0            
      6600   277.36747      0            
      6620   264.59301      0            
      6640   350.17494      0            
      6660   301.17782      0            
      6680   327.2456       0            
      6700   310.75992      0            
      6720   315.35305      0            
      6740   362.84877      0            
      6760   430.23436      0            
      6780   378.8606       0            
      6800   442.04039      0            
      6820   452.74426      0            
      6840   451.69716      0            
      6860   395.37896      0            
      6880   383.08488      0            
      6900   371.01551      0            
      6920   341.10557      0            
      6940   354.97426      0            
      6960   322.45385      0            
      6980   316.07145      0            
      7000   341.75873      0            
      7020   299.5267       0            
      7040   268.70384      0            
      7060   292.35641      0            
      7080   298.92061      0            
      7100   300.50026      0            
      7120   282.32164      0            
      7140   263.97585      0            
      7160   290.85579      0            
      7180   289.76806      0            
      7200   293.74987      0            
      7220   297.34004      0            
      7240   241.64403      0            
      7260   280.65873      0            
      7280   264.41684      0            
      7300   261.30637      0            
      7320   281.32915      0            
      7340   291.9926       0            
      7360   285.47922      0            
      7380   292.2086       0            
      7400   278.29405      0            
      7420   291.72783      0            
      7440   294.15884      0            
      7460   315.26786      0            
      7480   325.20161      0            
      7500   310.85508      0            
      7520   283.85701      0            
      7540   332.76181      0            
      7560   328.14844      0            
      7580   358.25246      0            
      7600   365.02031      0            
      7620   290.92346      0            
      7640   335.36324      0            
      7660   306.09169      0            
      7680   303.68366      0            
      7700   319.34617      0            
      7720   290.08149      0            
      7740   299.70377      0            
      7760   280.71227      0            
      7780   311.22663      0            
      7800   310.90862      0            
      7820   257.2299       0            
      7840   258.37858      0            
      7860   294.61825      0            
      7880   283.89804      0            
      7900   303.71468      0            
      7920   297.77865      0            
      7940   271.49237      0            
      7960   305.00238      0            
      7980   325.1041       0            
      8000   292.48493      0            
      8020   313.14353      0            
      8040   375.11164      0            
      8060   400.73093      0            
      8080   352.05988      0            
      8100   336.55463      0            
      8120   332.78948      0            
      8140   381.62459      0            
      8160   343.7893       0            
      8180   315.01983      0            
      8200   312.85432      0            
      8220   271.12104      0            
      8240   318.32026      0            
      8260   291.53459      0            
      8280   311.69328      0            
      8300   328.34416      0            
      8320   296.89627      0            
      8340   316.69443      0            
      8360   274.45519      0            
      8380   305.05093      0            
      8400   297.80484      0            
      8420   292.57811      0            
      8440   279.52471      0            
      8460   271.41735      0            
      8480   282.09994      0            
      8500   310.59833      0            
      8520   300.8935       0            
      8540   275.74526      0            
      8560   274.72134      0            
      8580   249.46586      0            
      8600   281.01705      0            
      8620   299.1181       0            
      8640   272.39585      0            
      8660   317.1128       0            
      8680   353.45661      0            
      8700   319.18226      0            
      8720   323.92426      0            
      8740   350.1799       0            
      8760   314.05634      0            
      8780   305.31152      0            
      8800   314.21667      0            
      8820   295.15869      0            
      8840   327.22504      0            
      8860   306.83044      0            
      8880   296.72123      0            
      8900   281.58885      0            
      8920   318.08066      0            
      8940   301.45216      0            
      8960   304.45804      0            
      8980   315.5988       0            
      9000   306.58628      0            
      9020   330.48078      0            
      9040   277.00888      0            
      9060   296.78472      0            
      9080   298.38548      0            
      9100   312.36202      0            
      9120   319.54652      0            
      9140   284.848        0            
      9160   288.50953      0            
      9180   316.67399      0            
      9200   311.69795      0            
      9220   304.91121      0            
      9240   340.23083      0            
      9260   294.90558      0            
      9280   288.70217      0            
      9300   293.06428      0            
      9320   276.90916      0            
      9340   275.17481      0            
      9360   279.5351       0            
      9380   299.96279      0            
      9400   302.24898      0            
      9420   287.07154      0            
      9440   279.40505      0            
      9460   266.2685       0            
      9480   278.07679      0            
      9500   274.10469      0            
      9520   272.72499      0            
      9540   264.60153      0            
      9560   296.96814      0            
      9580   270.19279      0            
      9600   288.78085      0            
      9620   278.91915      0            
      9640   323.35119      0            
      9660   311.30696      0            
      9680   309.76283      0            
      9700   304.48529      0            
      9720   265.07003      0            
      9740   379.07593      0            
      9760   311.49418      0            
      9780   314.00543      0            
      9800   330.36096      0            
      9820   327.37663      0            
      9840   326.97196      0            
      9860   281.93321      0            
      9880   319.55655      0            
      9900   310.77436      0            
      9920   330.02344      0            
      9940   386.38054      0            
      9960   376.82934      0            
      9980   408.53027      0            
     10000   368.38542      0            
     10020   392.77205      0            
     10040   340.84639      0            
     10060   354.63491      0            
     10080   368.33655      0            
     10100   316.46404      0            
     10120   305.7911       0            
     10140   301.11263      0            
     10160   346.14246      0            
     10180   322.5312       0            
     10200   294.95843      0            
     10220   277.79044      0            
     10240   285.89098      0            
     10260   310.71589      0            
     10280   304.15892      0            
     10300   294.11006      0            
     10320   292.64364      0            
     10340   292.07417      0            
     10360   306.45478      0            
     10380   312.55848      0            
     10400   299.41554      0            
     10420   307.41111      0            
     10440   322.18977      0            
     10460   277.64283      0            
     10480   289.39082      0            
     10500   276.25097      0            
     10520   299.59246      0            
     10540   303.29639      0            
     10560   272.47073      0            
     10580   318.72905      0            
     10600   292.05028      0            
     10620   344.5851       0            
     10640   322.48847      0            
     10660   311.05377      0            
     10680   307.5014       0            
     10700   326.04482      0            
     10720   328.07692      0            
     10740   309.21278      0            
     10760   295.61788      0            
     10780   325.62936      0            
     10800   300.08334      0            
     10820   277.14198      0            
     10840   280.85202      0            
     10860   295.36353      0            
     10880   275.03151      0            
     10900   273.48132      0            
     10920   303.72644      0            
     10940   288.43852      0            
     10960   297.3477       0            
     10980   301.33255      0            
     11000   297.27721      0            
     11020   277.04046      0            
     11040   264.59918      0            
     11060   289.04813      0            
     11080   300.31175      0            
     11100   302.79155      0            
     11120   281.95549      0            
     11140   291.22323      0            
     11160   349.84494      0            
     11180   320.86848      0            
     11200   335.68769      0            
     11220   324.24372      0            
     11240   315.54102      0            
     11260   290.29617      0            
     11280   350.40389      0            
     11300   322.29955      0            
     11320   328.35431      0            
     11340   328.47201      0            
     11360   325.33499      0            
     11380   293.15416      0            
     11400   315.59111      0            
     11420   318.09758      0            
     11440   337.24669      0            
     11460   291.11112      0            
     11480   341.4918       0            
     11500   283.81312      0            
     11520   280.91229      0            
     11540   279.86081      0            
     11560   252.39993      0            
     11580   274.17497      0            
     11600   280.84445      0            
     11620   291.57574      0            
     11640   292.149        0            
     11660   270.46382      0            
     11680   286.77851      0            
     11700   296.91877      0            
     11720   267.54575      0            
     11740   361.12486      0            
     11760   303.2834       0            
     11780   352.42619      0            
     11800   315.32275      0            
     11820   340.42267      0            
     11840   338.35011      0            
     11860   363.30867      0            
     11880   322.14444      0            
     11900   339.88938      0            
     11920   399.72199      0            
     11940   341.14082      0            
     11960   323.76536      0            
     11980   322.32896      0            
     12000   306.95704      0            
     12020   267.87951      0            
     12040   321.91603      0            
     12060   271.59944      0            
     12080   318.16522      0            
     12100   319.2934       0            
     12120   307.54629      0            
     12140   288.89813      0            
     12160   309.51111      0            
     12180   304.45324      0            
     12200   272.85421      0            
     12220   285.31715      0            
     12240   306.7268       0            
     12260   271.7787       0            
     12280   305.06838      0            
     12300   312.20029      0            
     12320   271.85833      0            
     12340   288.37387      0            
     12360   263.55935      0            
     12380   273.3325       0            
     12400   287.02546      0            
     12420   307.98963      0            
     12440   248.96848      0            
     12460   305.28797      0            
     12480   306.68578      0            
     12500   280.03865      0            
     12520   323.05952      0            
     12540   312.26842      0            
     12560   316.42683      0            
     12580   337.63839      0            
     12600   303.86325      0            
     12620   293.74441      0            
     12640   329.47648      0            
     12660   325.1462       0            
     12680   312.54043      0            
     12700   316.42373      0            
     12720   338.33086      0            
     12740   308.66277      0            
     12760   298.3066       0            
     12780   320.41038      0            
     12800   274.44589      0            
     12820   269.89515      0            
     12840   271.57733      0            
     12860   311.40034      0            
     12880   263.26913      0            
     12900   260.24803      0            
     12920   287.33152      0            
     12940   274.15837      0            
     12960   260.90057      0            
     12980   307.28433      0            
     13000   279.85789      0            
     13020   278.7285       0            
     13040   275.9647       0            
     13060   277.52458      0            
     13080   274.30394      0            
     13100   301.97358      0            
     13120   301.77116      0            
     13140   312.33636      0            
     13160   311.06963      0            
     13180   322.53114      0            
     13200   292.20781      0            
     13220   334.76578      0            
     13240   328.85175      0            
     13260   325.44751      0            
     13280   299.31092      0            
     13300   301.09127      0            
     13320   292.06426      0            
     13340   299.45393      0            
     13360   288.72932      0            
     13380   291.92229      0            
     13400   328.20675      0            
     13420   310.6774       0            
     13440   283.30731      0            
     13460   365.16987      0            
     13480   265.37787      0            
     13500   292.36535      0            
     13520   310.00062      0            
     13540   320.40838      0            
     13560   307.02671      0            
     13580   299.15529      0            
     13600   313.59271      0            
     13620   309.1756       0            
     13640   315.09988      0            
     13660   330.79368      0            
     13680   326.49182      0            
     13700   314.28343      0            
     13720   285.81003      0            
     13740   321.05692      0            
     13760   284.0507       0            
     13780   310.6895       0            
     13800   288.29267      0            
     13820   330.79798      0            
     13840   279.64393      0            
     13860   284.36567      0            
     13880   277.73821      0            
     13900   312.50617      0            
     13920   283.5654       0            
     13940   270.25984      0            
     13960   301.19842      0            
     13980   239.88688      0            
     14000   280.72143      0            
     14020   245.70776      0            
     14040   300.53258      0            
     14060   267.57634      0            
     14080   284.23927      0            
     14100   277.6184       0            
     14120   290.12211      0            
     14140   326.99146      0            
     14160   297.9087       0            
     14180   329.74017      0            
     14200   297.71879      0            
     14220   349.14979      0            
     14240   302.16784      0            
     14260   302.28809      0            
     14280   291.55687      0            
     14300   320.05089      0            
     14320   319.33409      0            
     14340   315.36088      0            
     14360   299.3644       0            
     14380   277.21824      0            
     14400   273.09201      0            
     14420   312.59199      0            
     14440   308.72624      0            
     14460   296.29857      0            
     14480   273.63722      0            
     14500   310.20728      0            
     14520   313.53264      0            
     14540   295.60185      0            
     14560   296.61618      0            
     14580   296.7742       0            
     14600   254.07604      0            
     14620   282.12681      0            
     14640   298.49723      0            
     14660   283.55048      0            
     14680   321.95198      0            
     14700   289.66069      0            
     14720   304.2867       0            
     14740   270.27074      0            
     14760   289.98272      0            
     14780   278.90412      0            
     14800   294.21031      0            
     14820   283.25783      0            
     14840   288.84142      0            
     14860   286.88986      0            
     14880   297.09602      0            
     14900   313.415        0            
     14920   293.33249      0            
     14940   311.90337      0            
     14960   295.71861      0            
     14980   312.59531      0            
     15000   303.39256      0            
     15020   297.91897      0            
     15040   281.16836      0            
     15060   310.76155      0            
     15080   320.89536      0            
     15100   302.54904      0            
     15120   295.27485      0            
     15140   280.9388       0            
     15160   279.08048      0            
     15180   313.78724      0            
     15200   332.83006      0            
     15220   313.62296      0            
     15240   317.26248      0            
     15260   307.88053      0            
     15280   314.33774      0            
     15300   294.77464      0            
     15320   291.38372      0            
     15340   320.04468      0            
     15360   282.00213      0            
     15380   302.85024      0            
     15400   288.34708      0            
     15420   262.60714      0            
     15440   282.05274      0            
     15460   283.93608      0            
     15480   259.58027      0            
     15500   261.85445      0            
     15520   268.38026      0            
     15540   264.80031      0            
     15560   280.76668      0            
     15580   272.5127       0            
     15600   254.30226      0            
     15620   329.70823      0            
     15640   347.13605      0            
     15660   294.17778      0            
     15680   294.19302      0            
     15700   301.73009      0            
     15720   327.78006      0            
     15740   316.23138      0            
     15760   334.52682      0            
     15780   322.9826       0            
     15800   336.61488      0            
     15820   286.58056      0            
     15840   304.36295      0            
     15860   298.5877       0            
     15880   305.80338      0            
     15900   309.54332      0            
     15920   295.58355      0            
     15940   302.60574      0            
     15960   294.70292      0            
     15980   284.99749      0            
     16000   319.92436      0            
     16020   288.7111       0            
     16040   265.31463      0            
     16060   291.35409      0            
     16080   276.35185      0            
     16100   280.49405      0            
     16120   249.55148      0            
     16140   263.64147      0            
     16160   327.30793      0            
     16180   296.03086      0            
     16200   330.97183      0            
     16220   300.13128      0            
     16240   331.70309      0            
     16260   334.32379      0            
     16280   366.59313      0            
     16300   335.69882      0            
     16320   301.29768      0            
     16340   335.33581      0            
     16360   342.3505       0            
     16380   313.69321      0            
     16400   315.11577      0            
     16420   314.55432      0            
     16440   303.61853      0            
     16460   272.91345      0            
     16480   311.03893      0            
     16500   323.94501      0            
     16520   335.79954      0            
     16540   280.96973      0            
     16560   267.97786      0            
     16580   299.46034      0            
     16600   291.87606      0            
     16620   315.81627      0            
     16640   303.75514      0            
     16660   314.8449       0            
     16680   288.23438      0            
     16700   308.839        0            
     16720   296.09429      0            
     16740   324.64787      0            
     16760   346.20992      0            
     16780   334.78411      0            
     16800   329.71964      0            
     16820   333.25778      0            
     16840   355.60719      0            
     16860   310.48046      0            
     16880   355.87325      0            
     16900   341.15437      0            
     16920   326.41489      0            
     16940   313.7167       0            
     16960   303.16327      0            
     16980   319.0428       0            
     17000   313.75429      0            
     17020   295.3177       0            
     17040   312.36115      0            
     17060   324.28723      0            
     17080   312.28075      0            
     17100   306.28891      0            
     17120   258.22971      0            
     17140   316.03464      0            
     17160   311.01212      0            
     17180   275.7883       0            
     17200   284.0474       0            
     17220   292.8004       0            
     17240   271.07031      0            
     17260   320.26583      0            
     17280   302.7728       0            
     17300   298.98781      0            
     17320   299.45754      0            
     17340   262.11027      0            
     17360   302.35189      0            
     17380   271.18958      0            
     17400   326.48779      0            
     17420   317.68893      0            
     17440   308.75561      0            
     17460   316.21948      0            
     17480   346.75994      0            
     17500   319.12621      0            
     17520   333.6775       0            
     17540   346.13013      0            
     17560   299.63432      0            
     17580   329.23764      0            
     17600   325.4567       0            
     17620   379.03432      0            
     17640   293.53434      0            
     17660   313.9802       0            
     17680   285.44639      0            
     17700   275.49442      0            
     17720   298.25328      0            
     17740   287.36949      0            
     17760   277.95419      0            
     17780   287.91089      0            
     17800   285.58393      0            
     17820   249.74787      0            
     17840   309.13332      0            
     17860   334.98241      0            
     17880   288.98089      0            
     17900   293.25411      0            
     17920   294.93503      0            
     17940   306.37435      0            
     17960   280.79174      0            
     17980   323.44714      0            
     18000   314.42875      0            
     18020   298.09193      0            
     18040   332.56345      0            
     18060   331.25257      0            
     18080   304.22534      0            
     18100   304.72878      0            
     18120   360.74544      0            
     18140   371.27783      0            
     18160   298.81308      0            
     18180   340.63148      0            
     18200   340.12698      0            
     18220   320.77634      0            
     18240   349.34639      0            
     18260   327.01713      0            
     18280   317.13783      0            
     18300   323.70475      0            
     18320   297.97017      0            
     18340   279.46243      0            
     18360   319.70841      0            
     18380   290.80379      0            
     18400   254.08217      0            
     18420   286.68508      0            
     18440   286.24995      0            
     18460   308.62992      0            
     18480   315.50102      0            
     18500   283.64086      0            
     18520   278.413        0            
     18540   284.78937      0            
     18560   288.36428      0            
     18580   312.44939      0            
     18600   301.92783      0            
     18620   307.89675      0            
     18640   303.7745       0            
     18660   307.56739      0            
     18680   283.6673       0            
     18700   325.08023      0            
     18720   302.71867      0            
     18740   293.20412      0            
     18760   340.67463      0            
     18780   288.19261      0            
     18800   306.99972      0            
     18820   305.77334      0            
     18840   294.88892      0            
     18860   301.39355      0            
     18880   339.70992      0            
     18900   281.85057      0            
     18920   273.62295      0            
     18940   294.42203      0            
     18960   308.19103      0            
     18980   267.36236      0            
     19000   272.06052      0            
     19020   266.94206      0            
     19040   247.73287      0            
     19060   266.05906      0            
     19080   269.36598      0            
     19100   281.22651      0            
     19120   282.42748      0            
     19140   279.66212      0            
     19160   293.21501      0            
     19180   312.64384      0            
     19200   310.70956      0            
     19220   306.33361      0            
     19240   298.73343      0            
     19260   333.356        0            
     19280   322.73102      0            
     19300   331.17458      0            
     19320   308.9787       0            
     19340   300.19679      0            
     19360   343.50775      0            
     19380   347.19971      0            
     19400   314.59763      0            
     19420   274.65835      0            
     19440   322.24263      0            
     19460   312.9295       0            
     19480   297.46842      0            
     19500   302.63036      0            
     19520   306.98003      0            
     19540   279.4285       0            
     19560   309.56527      0            
     19580   260.39602      0            
     19600   292.42153      0            
     19620   282.82976      0            
     19640   272.88197      0            
     19660   302.66783      0            
     19680   289.86283      0            
     19700   301.26313      0            
     19720   265.99623      0            
     19740   286.72267      0            
     19760   298.54355      0            
     19780   294.20833      0            
     19800   298.78452      0            
     19820   303.79014      0            
     19840   306.40493      0            
     19860   302.4281       0            
     19880   312.45979      0            
     19900   329.49573      0            
     19920   323.15426      0            
     19940   339.95408      0            
     19960   336.70455      0            
     19980   300.49827      0            
     20000   330.07769      0            
     20020   292.67319      0            
     20040   332.57315      0            
     20060   309.26455      0            
     20080   307.27982      0            
     20100   294.2098       0            
     20120   250.53666      0            
     20140   286.88097      0            
     20160   317.23895      0            
     20180   334.33252      0            
     20200   297.56303      0            
     20220   300.50548      0            
     20240   271.70111      0            
     20260   289.64436      0            
     20280   294.336        0            
     20300   308.64887      0            
     20320   278.72231      0            
     20340   295.11918      0            
     20360   286.8612       0            
     20380   285.67363      0            
     20400   310.68814      0            
     20420   312.05928      0            
     20440   316.27142      0            
     20460   298.26703      0            
     20480   305.26449      0            
     20500   352.39138      0            
     20520   317.17433      0            
     20540   327.60988      0            
     20560   334.72791      0            
     20580   339.3389       0            
     20600   337.66929      0            
     20620   342.58979      0            
     20640   277.37885      0            
     20660   320.29478      0            
     20680   301.5336       0            
     20700   326.95024      0            
     20720   356.52849      0            
     20740   318.80004      0            
     20760   330.00778      0            
     20780   281.0675       0            
     20800   319.06614      0            
     20820   286.31162      0            
     20840   322.47541      0            
     20860   246.1235       0            
     20880   286.77743      0            
     20900   298.01641      0            
     20920   296.34652      0            
     20940   257.17967      0            
     20960   279.02346      0            
     20980   287.22865      0            
     21000   290.58139      0            
     21020   286.76457      0            
     21040   315.61523      0            
     21060   326.12059      0            
     21080   293.58333      0            
     21100   285.15117      0            
     21120   307.31735      0            
     21140   316.99529      0            
     21160   326.85298      0            
     21180   339.75982      0            
     21200   362.17809      0            
     21220   325.23311      0            
     21240   314.57728      0            
     21260   298.89357      0            
     21280   308.52772      0            
     21300   326.73         0            
     21320   311.57046      0            
     21340   298.99082      0            
     21360   282.45408      0            
     21380   285.98212      0            
     21400   278.23616      0            
     21420   264.87273      0            
     21440   261.81839      0            
     21460   326.00451      0            
     21480   283.81776      0            
     21500   279.63516      0            
     21520   300.86549      0            
     21540   297.04273      0            
     21560   328.01002      0            
     21580   276.36388      0            
     21600   250.54854      0            
     21620   275.61058      0            
     21640   298.81255      0            
     21660   289.97332      0            
     21680   320.80927      0            
     21700   301.22029      0            
     21720   331.08093      0            
     21740   328.88614      0            
     21760   296.48844      0            
     21780   297.52795      0            
     21800   314.2401       0            
     21820   304.68968      0            
     21840   281.59491      0            
     21860   326.71399      0            
     21880   322.34261      0            
     21900   281.709        0            
     21920   295.86906      0            
     21940   286.15051      0            
     21960   271.99302      0            
     21980   256.40706      0            
     22000   266.00417      0            
     22020   267.14761      0            
     22040   273.48588      0            
     22060   265.33869      0            
     22080   279.62406      0            
     22100   298.88985      0            
     22120   299.74433      0            
     22140   270.27917      0            
     22160   308.57053      0            
     22180   294.1513       0            
     22200   305.46364      0            
     22220   288.1395       0            
     22240   296.95308      0            
     22260   321.00049      0            
     22280   303.25946      0            
     22300   308.33895      0            
     22320   314.36455      0            
     22340   349.75841      0            
     22360   269.87644      0            
     22380   302.55412      0            
     22400   300.47398      0            
     22420   309.85251      0            
     22440   303.82246      0            
     22460   272.09548      0            
     22480   264.2947       0            
     22500   304.1588       0            
     22520   325.62985      0            
     22540   284.48638      0            
     22560   291.70858      0            
     22580   272.22627      0            
     22600   295.09299      0            
     22620   253.55636      0            
     22640   254.36523      0            
     22660   260.19742      0            
     22680   255.15388      0            
     22700   267.56131      0            
     22720   276.94245      0            
     22740   274.30532      0            
     22760   286.00545      0            
     22780   271.43566      0            
     22800   293.75362      0            
     22820   297.30405      0            
     22840   318.89598      0            
     22860   302.06123      0            
     22880   289.4509       0            
     22900   271.89197      0            
     22920   287.93265      0            
     22940   316.22857      0            
     22960   282.49065      0            
     22980   288.44769      0            
     23000   316.05971      0            
     23020   296.1442       0            
     23040   347.03157      0            
     23060   295.82384      0            
     23080   300.30866      0            
     23100   323.75942      0            
     23120   318.15984      0            
     23140   341.55612      0            
     23160   291.132        0            
     23180   280.36999      0            
     23200   291.9914       0            
     23220   318.67295      0            
     23240   297.63236      0            
     23260   285.68094      0            
     23280   283.12555      0            
     23300   270.62315      0            
     23320   276.80238      0            
     23340   273.58555      0            
     23360   287.40957      0            
     23380   266.78918      0            
     23400   253.50036      0            
     23420   271.6857       0            
     23440   278.87662      0            
     23460   282.46851      0            
     23480   292.77007      0            
     23500   263.88299      0            
     23520   281.38343      0            
     23540   284.45997      0            
     23560   304.87571      0            
     23580   292.03037      0            
     23600   327.06455      0            
     23620   295.01141      0            
     23640   297.57741      0            
     23660   320.97361      0            
     23680   316.49967      0            
     23700   315.85412      0            
     23720   300.68726      0            
     23740   290.03507      0            
     23760   314.37271      0            
     23780   287.61093      0            
     23800   290.55751      0            
     23820   316.69941      0            
     23840   304.04117      0            
     23860   288.32614      0            
     23880   276.65784      0            
     23900   260.14012      0            
     23920   257.21304      0            
     23940   282.44465      0            
     23960   259.07254      0            
     23980   280.42014      0            
     24000   244.68744      0            
     24020   248.14842      0            
     24040   269.03931      0            
     24060   269.7766       0            
     24080   243.57103      0            
     24100   276.49651      0            
     24120   269.88257      0            
     24140   299.18576      0            
     24160   283.74098      0            
     24180   248.46332      0            
     24200   320.04087      0            
     24220   287.42009      0            
     24240   272.53101      0            
     24260   288.2735       0            
     24280   336.08504      0            
     24300   325.50732      0            
     24320   299.97         0            
     24340   283.52373      0            
     24360   334.85853      0            
     24380   305.86181      0            
     24400   325.50073      0            
     24420   298.19657      0            
     24440   285.76248      0            
     24460   311.33011      0            
     24480   269.53864      0            
     24500   262.91467      0            
     24520   269.96583      0            
     24540   258.7474       0            
     24560   289.13819      0            
     24580   285.06368      0            
     24600   285.34928      0            
     24620   252.25041      0            
     24640   254.40216      0            
     24660   259.72749      0            
     24680   259.6165       0            
     24700   272.76167      0            
     24720   273.2081       0            
     24740   294.55898      0            
     24760   298.50673      0            
     24780   328.87774      0            
     24800   296.21577      0            
     24820   317.89741      0            
     24840   288.57568      0            
     24860   328.54584      0            
     24880   315.26248      0            
     24900   314.81356      0            
     24920   331.26179      0            
     24940   327.59662      0            
     24960   326.81708      0            
     24980   304.6495       0            
     25000   288.06345      0            
     25020   301.75274      0            
     25040   331.39831      0            
     25060   292.18232      0            
     25080   283.71646      0            
     25100   294.54507      0            
     25120   268.10419      0            
     25140   254.05001      0            
     25160   298.64713      0            
     25180   306.4599       0            
     25200   260.86144      0            
     25220   246.74988      0            
     25240   272.73202      0            
     25260   268.3868       0            
     25280   269.00951      0            
     25300   273.77481      0            
     25320   284.17629      0            
     25340   274.70714      0            
     25360   306.41008      0            
     25380   294.60918      0            
     25400   299.20217      0            
     25420   335.40294      0            
     25440   292.54503      0            
     25460   344.85984      0            
     25480   318.87066      0            
     25500   317.91845      0            
     25520   276.96644      0            
     25540   321.19201      0            
     25560   342.1216       0            
     25580   289.54833      0            
     25600   327.55667      0            
     25620   317.24264      0            
     25640   294.33068      0            
     25660   328.45726      0            
     25680   299.01313      0            
     25700   314.44689      0            
     25720   274.10665      0            
     25740   261.37776      0            
     25760   265.58575      0            
     25780   270.74997      0            
     25800   252.76286      0            
     25820   309.39285      0            
     25840   306.00129      0            
     25860   306.13185      0            
     25880   295.87846      0            
     25900   319.67011      0            
     25920   328.1157       0            
     25940   298.67524      0            
     25960   302.06562      0            
     25980   294.88841      0            
     26000   285.91278      0            
     26020   294.69343      0            
     26040   283.54465      0            
     26060   311.95991      0            
     26080   277.86357      0            
     26100   311.56396      0            
     26120   268.7923       0            
     26140   299.69277      0            
     26160   312.63817      0            
     26180   321.89164      0            
     26200   285.7488       0            
     26220   305.6468       0            
     26240   321.45011      0            
     26260   281.50486      0            
     26280   312.66479      0            
     26300   329.93222      0            
     26320   293.5458       0            
     26340   323.41039      0            
     26360   319.21815      0            
     26380   314.87702      0            
     26400   268.56454      0            
     26420   291.47946      0            
     26440   278.32317      0            
     26460   284.29413      0            
     26480   278.18185      0            
     26500   291.03789      0            
     26520   282.47997      0            
     26540   292.16286      0            
     26560   283.41555      0            
     26580   284.96478      0            
     26600   298.9308       0            
     26620   308.59175      0            
     26640   284.28213      0            
     26660   320.1325       0            
     26680   315.74822      0            
     26700   325.68842      0            
     26720   259.82038      0            
     26740   316.30372      0            
     26760   347.09825      0            
     26780   288.95696      0            
     26800   324.14218      0            
     26820   318.36697      0            
     26840   354.13762      0            
     26860   321.54927      0            
     26880   334.62738      0            
     26900   311.99594      0            
     26920   289.25324      0            
     26940   257.38115      0            
     26960   311.99024      0            
     26980   280.69585      0            
     27000   277.01699      0            
     27020   293.20209      0            
     27040   295.86417      0            
     27060   267.71122      0            
     27080   273.04274      0            
     27100   303.40641      0            
     27120   287.00848      0            
     27140   279.2953       0            
     27160   271.84646      0            
     27180   299.97672      0            
     27200   279.48585      0            
     27220   308.44098      0            
     27240   282.8132       0            
     27260   270.56689      0            
     27280   321.28896      0            
     27300   292.0225       0            
     27320   274.83507      0            
     27340   279.19533      0            
     27360   335.86688      0            
     27380   312.98053      0            
     27400   325.32628      0            
     27420   319.1929       0            
     27440   310.17477      0            
     27460   308.78109      0            
     27480   290.04008      0            
     27500   263.09699      0            
     27520   310.5598       0            
     27540   328.38976      0            
     27560   297.05572      0            
     27580   336.57744      0            
     27600   324.47801      0            
     27620   326.84538      0            
     27640   315.38255      0            
     27660   336.25012      0            
     27680   301.19473      0            
     27700   333.98876      0            
     27720   323.32022      0            
     27740   310.32124      0            
     27760   285.07285      0            
     27780   334.00768      0            
     27800   320.77225      0            
     27820   273.88962      0            
     27840   244.24338      0            
     27860   286.60279      0            
     27880   275.73113      0            
     27900   297.8377       0            
     27920   269.32498      0            
     27940   297.54797      0            
     27960   273.50003      0            
     27980   284.09287      0            
     28000   263.37012      0            
     28020   273.91271      0            
     28040   302.17093      0            
     28060   275.18645      0            
     28080   322.56345      0            
     28100   286.42626      0            
     28120   320.47814      0            
     28140   353.25895      0            
     28160   315.1626       0            
     28180   332.14781      0            
     28200   336.00649      0            
     28220   312.81692      0            
     28240   325.08149      0            
     28260   336.87302      0            
     28280   305.6351       0            
     28300   362.48498      0            
     28320   346.98903      0            
     28340   316.42047      0            
     28360   343.83573      0            
     28380   325.04273      0            
     28400   282.97532      0            
     28420   322.031        0            
     28440   304.2845       0            
     28460   278.04148      0            
     28480   304.67769      0            
     28500   297.29101      0            
     28520   281.49948      0            
     28540   304.3322       0            
     28560   266.35374      0            
     28580   300.27508      0            
     28600   278.07523      0            
     28620   283.81926      0            
     28640   284.38546      0            
     28660   255.03772      0            
     28680   300.91623      0            
     28700   278.37702      0            
     28720   304.25321      0            
     28740   309.63386      0            
     28760   314.61091      0            
     28780   321.83454      0            
     28800   324.9757       0            
     28820   308.72715      0            
     28840   368.7159       0            
     28860   341.23476      0            
     28880   299.65533      0            
     28900   311.78522      0            
     28920   305.80893      0            
     28940   266.19618      0            
     28960   315.80815      0            
     28980   315.71126      0            
     29000   301.79637      0            
     29020   298.8628       0            
     29040   297.65671      0            
     29060   279.80205      0            
     29080   274.66261      0            
     29100   274.45872      0            
     29120   283.84762      0            
     29140   260.01927      0            
     29160   295.53037      0            
     29180   283.57501      0            
     29200   282.35749      0            
     29220   270.10328      0            
     29240   288.03133      0            
     29260   301.54485      0            
     29280   268.79395      0            
     29300   274.04694      0            
     29320   282.73062      0            
     29340   282.65569      0            
     29360   313.25391      0            
     29380   291.65183      0            
     29400   323.05803      0            
     29420   362.84137      0            
     29440   314.57433      0            
     29460   291.77285      0            
     29480   332.8878       0            
     29500   315.16092      0            
     29520   317.91447      0            
     29540   306.30799      0            
     29560   290.37457      0            
     29580   307.02594      0            
     29600   279.34459      0            
     29620   295.49454      0            
     29640   285.34796      0            
     29660   315.23446      0            
     29680   296.65624      0            
     29700   252.77327      0            
     29720   266.44558      0            
     29740   273.61945      0            
     29760   250.96347      0            
     29780   276.59036      0            
     29800   254.62489      0            
     29820   300.9825       0            
     29840   289.18139      0            
     29860   310.64505      0            
     29880   283.62267      0            
     29900   255.37726      0            
     29920   247.18145      0            
     29940   292.66002      0            
     29960   320.50826      0            
     29980   300.09328      0            
     30000   270.34202      0            
     30020   310.50701      0            
     30040   315.88727      0            
     30060   303.68282      0            
     30080   299.08904      0            
     30100   318.90922      0            
     30120   318.34097      0            
     30140   306.98186      0            
     30160   300.57148      0            
     30180   330.926        0            
     30200   319.31748      0            
     30220   317.28969      0            
     30240   281.70969      0            
     30260   291.34865      0            
     30280   303.31768      0            
     30300   300.28964      0            
     30320   296.47616      0            
     30340   301.02233      0            
     30360   281.5081       0            
     30380   265.15059      0            
     30400   292.38842      0            
     30420   274.19188      0            
     30440   255.11582      0            
     30460   255.02299      0            
     30480   282.67085      0            
     30500   273.69024      0            
     30520   290.54783      0            
     30540   305.53785      0            
     30560   288.46267      0            
     30580   297.05113      0            
     30600   291.35476      0            
     30620   322.32314      0            
     30640   309.32692      0            
     30660   309.65601      0            
     30680   300.0186       0            
     30700   353.43819      0            
     30720   320.58719      0            
     30740   299.98726      0            
     30760   321.09952      0            
     30780   322.11384      0            
     30800   342.68153      0            
     30820   287.46409      0            
     30840   315.92048      0            
     30860   298.34218      0            
     30880   277.1247       0            
     30900   311.14681      0            
     30920   294.15378      0            
     30940   314.53363      0            
     30960   292.92578      0            
     30980   259.72449      0            
     31000   290.60642      0            
     31020   297.00137      0            
     31040   273.59356      0            
     31060   258.84668      0            
     31080   268.41413      0            
     31100   243.35431      0            
     31120   294.00317      0            
     31140   235.4821       0            
     31160   263.60467      0            
     31180   261.43953      0            
     31200   272.27495      0            
     31220   272.5044       0            
     31240   276.39938      0            
     31260   260.61553      0            
     31280   265.65866      0            
     31300   292.08859      0            
     31320   262.75335      0            
     31340   254.1428       0            
     31360   327.14606      0            
     31380   253.03922      0            
     31400   324.51828      0            
     31420   286.6777       0            
     31440   302.21559      0            
     31460   263.87094      0            
     31480   319.45744      0            
     31500   325.36893      0            
     31520   319.0461       0            
     31540   322.12352      0            
     31560   311.077        0            
     31580   293.23453      0            
     31600   336.14186      0            
     31620   300.76815      0            
     31640   311.71929      0            
     31660   321.77527      0            
     31680   337.36644      0            
     31700   297.17157      0            
     31720   325.79448      0            
     31740   308.68208      0            
     31760   281.39552      0            
     31780   269.11933      0            
     31800   252.92636      0            
     31820   289.7499       0            
     31840   293.96995      0            
     31860   286.18022      0            
     31880   298.41266      0            
     31900   263.36298      0            
     31920   276.84534      0            
     31940   273.46602      0            
     31960   270.33656      0            
     31980   300.67606      0            
     32000   274.61651      0            
     32020   326.83738      0            
     32040   297.64142      0            
     32060   320.90508      0            
     32080   317.38522      0            
     32100   326.53323      0            
     32120   294.66195      0            
     32140   336.80958      0            
     32160   297.64321      0            
     32180   317.24335      0            
     32200   306.62107      0            
     32220   310.88796      0            
     32240   325.38148      0            
     32260   283.25963      0            
     32280   294.19563      0            
     32300   313.75996      0            
     32320   268.9671       0            
     32340   320.53456      0            
     32360   324.09947      0            
     32380   276.80126      0            
     32400   283.1577       0            
     32420   273.60745      0            
     32440   284.84282      0            
     32460   283.68432      0            
     32480   292.00932      0            
     32500   273.71501      0            
     32520   281.00848      0            
     32540   251.77555      0            
     32560   232.84622      0            
     32580   274.29384      0            
     32600   251.38836      0            
     32620   244.56741      0            
     32640   276.63871      0            
     32660   274.88853      0            
     32680   267.56669      0            
     32700   272.09384      0            
     32720   271.19643      0            
     32740   300.99894      0            
     32760   309.70998      0            
     32780   268.7773       0            
     32800   314.04801      0            
     32820   296.6342       0            
     32840   277.54009      0            
     32860   309.12358      0            
     32880   310.50105      0            
     32900   291.76102      0            
     32920   285.40664      0            
     32940   316.75514      0            
     32960   303.90857      0            
     32980   294.52238      0            
     33000   318.14524      0            
     33020   306.10036      0            
     33040   327.66687      0            
     33060   302.41702      0            
     33080   295.82968      0            
     33100   306.41267      0            
     33120   313.40414      0            
     33140   304.28832      0            
     33160   289.91913      0            
     33180   265.61057      0            
     33200   264.34037      0            
     33220   253.58952      0            
     33240   273.60887      0            
     33260   260.0515       0            
     33280   278.67197      0            
     33300   283.56844      0            
     33320   267.92275      0            
     33340   300.83137      0            
     33360   282.5892       0            
     33380   273.60511      0            
     33400   262.58964      0            
     33420   289.48466      0            
     33440   290.82946      0            
     33460   329.18682      0            
     33480   333.39999      0            
     33500   266.43989      0            
     33520   317.6019       0            
     33540   327.01573      0            
     33560   287.23804      0            
     33580   291.62027      0            
     33600   309.51792      0            
     33620   293.562        0            
     33640   331.66786      0            
     33660   276.00308      0            
     33680   319.24735      0            
     33700   322.15534      0            
     33720   277.94213      0            
     33740   284.79673      0            
     33760   286.17787      0            
     33780   285.65758      0            
     33800   252.14338      0            
     33820   292.60915      0            
     33840   284.90493      0            
     33860   286.76796      0            
     33880   265.81854      0            
     33900   269.36005      0            
     33920   277.01391      0            
     33940   258.87932      0            
     33960   265.66741      0            
     33980   249.91388      0            
     34000   307.35521      0            
[...]
     92180   292.83416      0            
     92200   267.76117      0            
     92220   261.76648      0            
     92240   276.92288      0            
     92260   306.93584      0            
     92280   275.41447      0            
     92300   283.36074      0            
     92320   325.36066      0            
     92340   290.87774      0            
     92360   325.79327      0            
     92380   299.05984      0            
     92400   297.04835      0            
     92420   345.70115      0            
     92440   300.68415      0            
     92460   280.95782      0            
     92480   303.76792      0            
     92500   301.21009      0            
     92520   306.80932      0            
     92540   300.37005      0            
     92560   309.9799       0            
     92580   274.35285      0            
     92600   302.32847      0            
     92620   289.29453      0            
     92640   286.89406      0            
     92660   271.75831      0            
     92680   270.75621      0            
     92700   278.31342      0            
     92720   286.07621      0            
     92740   274.54578      0            
     92760   297.09747      0            
     92780   265.90503      0            
     92800   281.63657      0            
     92820   251.88533      0            
     92840   300.84725      0            
     92860   297.05399      0            
     92880   335.78293      0            
     92900   314.07309      0            
     92920   312.26508      0            
     92940   319.87471      0            
     92960   309.06585      0            
     92980   302.12361      0            
     93000   290.16302      0            
     93020   317.83158      0            
     93040   359.68654      0            
     93060   298.13886      0            
     93080   303.93316      0            
     93100   300.78007      0            
     93120   326.10511      0            
     93140   308.06489      0            
     93160   290.11921      0            
     93180   317.79717      0            
     93200   297.1433       0            
     93220   288.2461       0            
     93240   304.2405       0            
     93260   268.15496      0            
     93280   270.51019      0            
     93300   284.33522      0            
     93320   290.3592       0            
     93340   307.28589      0            
     93360   265.92508      0            
     93380   237.98027      0            
     93400   298.13529      0            
     93420   268.44983      0            
     93440   285.47439      0            
     93460   276.19695      0            
     93480   260.41499      0            
     93500   286.90721      0            
     93520   265.04405      0            
     93540   273.34473      0            
     93560   262.90531      0            
     93580   307.2575       0            
     93600   289.01442      0            
     93620   303.91748      0            
     93640   297.07974      0            
     93660   338.59458      0            
     93680   313.54004      0            
     93700   295.48033      0            
     93720   332.75417      0            
     93740   314.39049      0            
     93760   306.5102       0            
     93780   302.2674       0            
     93800   314.39063      0            
     93820   352.39287      0            
     93840   294.72429      0            
     93860   310.36181      0            
     93880   307.001        0            
     93900   345.79149      0            
     93920   309.92322      0            
     93940   305.33015      0            
     93960   293.2163       0            
     93980   300.1094       0            
     94000   295.07795      0            
     94020   295.9285       0            
     94040   292.53456      0            
     94060   272.3019       0            
     94080   250.14951      0            
     94100   275.9143       0            
     94120   308.27237      0            
     94140   298.43453      0            
     94160   285.6385       0            
     94180   267.83752      0            
     94200   305.82742      0            
     94220   273.23551      0            
     94240   280.62974      0            
     94260   310.94249      0            
     94280   310.13825      0            
     94300   313.11219      0            
     94320   288.59154      0            
     94340   312.63837      0            
     94360   304.69278      0            
     94380   330.08501      0            
     94400   317.19869      0            
     94420   326.92347      0            
     94440   256.87507      0            
     94460   317.97575      0            
     94480   308.14611      0            
     94500   341.19774      0            
     94520   307.9237       0            
     94540   324.56786      0            
     94560   306.67838      0            
     94580   304.40884      0            
     94600   322.10614      0            
     94620   321.85809      0            
     94640   316.11061      0            
     94660   298.29933      0            
     94680   298.44977      0            
     94700   296.49659      0            
     94720   270.26034      0            
     94740   287.27469      0            
     94760   277.67306      0            
     94780   275.72826      0            
     94800   292.28924      0            
     94820   290.44604      0            
     94840   277.13179      0            
     94860   278.49025      0            
     94880   263.2017       0            
     94900   282.9039       0            
     94920   295.73832      0            
     94940   273.51795      0            
     94960   288.62471      0            
     94980   299.06732      0            
     95000   350.69029      0            
     95020   299.84752      0            
     95040   294.5832       0            
     95060   333.27206      0            
     95080   338.21844      0            
     95100   295.65994      0            
     95120   350.42311      0            
     95140   304.66214      0            
     95160   323.98099      0            
     95180   307.74053      0            
     95200   335.53135      0            
     95220   315.34087      0            
     95240   323.44171      0            
     95260   307.50203      0            
     95280   312.60953      0            
     95300   269.04538      0            
     95320   281.5594       0            
     95340   292.62283      0            
     95360   290.79129      0            
     95380   292.31387      0            
     95400   313.35792      0            
     95420   280.3481       0            
     95440   302.44074      0            
     95460   311.96935      0            
     95480   295.96134      0            
     95500   283.93169      0            
     95520   307.24365      0            
     95540   328.16916      0            
     95560   295.82378      0            
     95580   325.467        0            
     95600   304.52981      0            
     95620   321.28522      0            
     95640   299.41905      0            
     95660   278.42488      0            
     95680   241.04403      0            
     95700   290.15772      0            
     95720   301.73348      0            
     95740   324.92145      0            
     95760   308.73087      0            
     95780   272.90534      0            
     95800   311.96388      0            
     95820   309.59952      0            
     95840   316.84559      0            
     95860   295.43896      0            
     95880   301.59855      0            
     95900   325.91897      0            
     95920   306.37112      0            
     95940   317.29049      0            
     95960   309.80917      0            
     95980   287.1891       0            
     96000   306.50848      0            
     96020   300.43068      0            
     96040   282.82846      0            
     96060   310.20362      0            
     96080   307.50991      0            
     96100   274.48586      0            
     96120   314.73764      0            
     96140   310.28246      0            
     96160   301.88025      0            
     96180   283.21664      0            
     96200   297.39854      0            
     96220   308.64185      0            
     96240   264.11155      0            
     96260   315.69531      0            
     96280   310.01767      0            
     96300   286.70479      0            
     96320   262.10834      0            
     96340   286.57619      0            
     96360   300.68691      0            
     96380   312.34636      0            
     96400   313.00891      0            
     96420   302.28518      0            
     96440   302.50221      0            
     96460   310.52095      0            
     96480   317.85256      0            
     96500   329.21608      0            
     96520   300.12948      0            
     96540   335.40998      0            
     96560   333.31887      0            
     96580   303.62686      0            
     96600   312.02112      0            
     96620   351.26288      0            
     96640   291.69466      0            
     96660   320.30325      0            
     96680   314.05943      0            
     96700   283.93386      0            
     96720   270.2047       0            
     96740   311.86403      0            
     96760   283.45895      0            
     96780   280.52568      0            
     96800   264.19698      0            
     96820   302.52524      0            
     96840   280.85588      0            
     96860   290.3275       0            
     96880   285.87277      0            
     96900   270.77905      0            
     96920   297.74035      0            
     96940   281.47553      0            
     96960   293.19891      0            
     96980   330.64848      0            
     97000   295.82809      0            
     97020   310.50797      0            
     97040   312.36532      0            
     97060   331.69403      0            
     97080   305.49896      0            
     97100   354.50146      0            
     97120   324.50644      0            
     97140   346.94765      0            
     97160   327.0644       0            
     97180   320.37342      0            
     97200   306.13032      0            
     97220   322.97504      0            
     97240   280.38232      0            
     97260   314.97043      0            
     97280   310.56527      0            
     97300   319.83141      0            
     97320   290.4183       0            
     97340   301.32536      0            
     97360   294.60637      0            
     97380   326.74322      0            
     97400   302.65286      0            
     97420   318.96587      0            
     97440   295.00689      0            
     97460   270.41754      0            
     97480   298.15414      0            
     97500   282.80316      0            
     97520   285.24416      0            
     97540   299.81078      0            
     97560   281.48366      0            
     97580   303.42651      0            
     97600   312.36171      0            
     97620   279.8922       0            
     97640   340.37403      0            
     97660   301.42283      0            
     97680   317.96524      0            
     97700   319.31551      0            
     97720   314.14344      0            
     97740   303.47675      0            
     97760   323.85405      0            
     97780   294.01919      0            
     97800   316.99172      0            
     97820   337.23728      0            
     97840   345.25296      0            
     97860   355.28513      0            
     97880   329.08976      0            
     97900   336.9933       0            
     97920   287.71931      0            
     97940   299.23072      0            
     97960   315.11499      0            
     97980   277.38257      0            
     98000   264.33096      0            
     98020   311.88571      0            
     98040   340.38301      0            
     98060   296.70331      0            
     98080   329.25037      0            
     98100   290.12881      0            
     98120   338.87715      0            
     98140   293.56671      0            
     98160   296.12148      0            
     98180   288.76694      0            
     98200   291.48114      0            
     98220   300.02758      0            
     98240   301.57548      0            
     98260   284.77542      0            
     98280   294.5933       0            
     98300   311.75357      0            
     98320   337.58549      0            
     98340   353.5838       0            
     98360   320.2827       0            
     98380   298.50676      0            
     98400   366.25544      0            
     98420   328.53232      0            
     98440   352.35974      0            
     98460   341.91028      0            
     98480   340.6244       0            
     98500   332.23628      0            
     98520   319.33533      0            
     98540   328.34101      0            
     98560   322.41666      0            
     98580   331.02031      0            
     98600   317.62237      0            
     98620   320.23799      0            
     98640   287.8621       0            
     98660   299.0912       0            
     98680   311.57661      0            
     98700   280.21055      0            
     98720   277.76618      0            
     98740   304.25837      0            
     98760   304.28651      0            
     98780   294.95197      0            
     98800   283.40701      0            
     98820   294.28052      0            
     98840   300.56027      0            
     98860   286.70747      0            
     98880   282.75745      0            
     98900   328.15048      0            
     98920   296.68108      0            
     98940   302.79617      0            
     98960   292.48543      0            
     98980   334.30076      0            
     99000   284.64568      0            
     99020   315.62153      0            
     99040   332.05318      0            
     99060   299.82275      0            
     99080   292.6397       0            
     99100   352.61115      0            
     99120   346.26843      0            
     99140   328.94215      0            
     99160   315.21399      0            
     99180   315.86779      0            
     99200   352.25306      0            
     99220   314.93197      0            
     99240   327.72366      0            
     99260   287.35885      0            
     99280   311.1991       0            
     99300   271.81164      0            
     99320   280.39498      0            
     99340   285.46784      0            
     99360   294.11342      0            
     99380   308.39159      0            
     99400   291.51488      0            
     99420   279.34191      0            
     99440   269.2955       0            
     99460   278.11049      0            
     99480   284.62361      0            
     99500   282.66453      0            
     99520   302.13833      0            
     99540   277.96115      0            
     99560   296.20186      0            
     99580   300.51112      0            
     99600   309.03742      0            
     99620   316.15181      0            
     99640   324.5803       0            
     99660   316.44386      0            
     99680   341.27835      0            
     99700   342.70068      0            
     99720   329.36097      0            
     99740   315.86587      0            
     99760   328.23335      0            
     99780   311.65433      0            
     99800   299.21573      0            
     99820   302.69028      0            
     99840   272.19319      0            
     99860   247.6063       0            
     99880   273.17416      0            
     99900   285.6976       0            
     99920   269.86879      0            
     99940   282.24579      0            
     99960   266.30742      0            
     99980   287.95926      0            
    100000   297.12499      0            
    100020   252.25967      0            
    100040   288.87693      0            
    100060   267.75522      0            
    100080   301.63798      0            
    100100   304.63212      0            
    100120   311.2418       0            
    100140   320.45947      0            
    100160   320.70817      0            
    100180   290.40813      0            
    100200   296.88466      0            
    100220   298.42945      0            
    100240   327.01841      0            
    100260   300.0578       0            
    100280   346.14184      0            
    100300   320.10237      0            
    100320   318.98613      0            
    100340   331.34511      0            
    100360   300.45286      0            
    100380   283.28475      0            
    100400   272.98532      0            
    100420   297.89148      0            
    100440   314.75107      0            
    100460   292.86523      0            
    100480   306.33098      0            
    100500   270.66177      0            
    100520   290.18688      0            
    100540   288.72743      0            
    100560   275.29965      0            
    100580   268.27818      0            
    100600   289.5242       0            
    100620   299.95271      0            
    100640   294.17023      0            
    100660   292.95546      0            
    100680   279.18308      0            
    100700   302.76138      0            
    100720   266.83876      0            
    100740   302.27112      0            
    100760   312.64485      0            
    100780   296.35573      0            
    100800   298.94876      0            
    100820   296.43793      0            
    100840   285.68776      0            
    100860   322.07005      0            
    100880   310.99325      0            
    100900   316.79617      0            
    100914   328.76206      0            
Loop time of 18.8071 on 1 procs for 100000 steps with 100 atoms

Performance: 459.401 ns/day, 0.052 hours/ns, 5317.139 timesteps/s, 531.714 katom-step/s
50.0% CPU use with 1 MPI tasks x no OpenMP threads

MPI task timing breakdown:
Section |  min time  |  avg time  |  max time  |%varavg| %total
---------------------------------------------------------------
Pair    | 12.013     | 12.013     | 12.013     |   0.0 | 63.88
Bond    | 0.31927    | 0.31927    | 0.31927    |   0.0 |  1.70
Neigh   | 0.010888   | 0.010888   | 0.010888   |   0.0 |  0.06
Comm    | 0.040988   | 0.040988   | 0.040988   |   0.0 |  0.22
Output  | 1.0008     | 1.0008     | 1.0008     |   0.0 |  5.32
Modify  | 5.2191     | 5.2191     | 5.2191     |   0.0 | 27.75
Other   |            | 0.2029     |            |       |  1.08

Nlocal:            100 ave         100 max         100 min
Histogram: 1 0 0 0 0 0 0 0 0 0
Nghost:              0 ave           0 max           0 min
Histogram: 1 0 0 0 0 0 0 0 0 0
Neighs:           4753 ave        4753 max        4753 min
Histogram: 1 0 0 0 0 0 0 0 0 0
FullNghs:            0 ave           0 max           0 min
Histogram: 1 0 0 0 0 0 0 0 0 0

Total # of neighbors = 4753
Ave neighs/atom = 47.53
Ave special neighs/atom = 5.88
Neighbor list builds = 84
Dangerous builds = 0

#####################################################
print "All done"
All done

# 3 options for the reaction:
  # 1 story telling avec fix/react et 5 atoms
  # 2 story telling avec fix/react et 2 molecules
  # 3 envoyer un mail  Jacob Gissinger  FAIT
  # 4 tenter la mthode nave 
Total wall time: 0:00:21
