read_data	InitialFile.txt
Reading data file ...
  orthogonal box = (0 0 0) to (158.5 158.5 158.5)
  1 by 1 by 1 MPI processor grid
WARNING: Atom style in data file atomic differs from currently defined atom style molecular (src/read_data.cpp:621)
  reading atoms ...
  6 atoms
  scanning bonds ...
  1 = max bonds/atom
  scanning angles ...
  1 = max angles/atom
  scanning dihedrals ...
  1 = max dihedrals/atom
  reading bonds ...
  5 bonds
  reading angles ...
  4 angles
  reading dihedrals ...
  3 dihedrals
Finding 1-2 1-3 1-4 neighbors ...
  special bond factors lj:    0        0        0       
  special bond factors coul:  0        0        0       
     2 = max # of 1-2 neighbors
     2 = max # of 1-3 neighbors
     3 = max # of 1-4 neighbors
     5 = max # of special neighbors
  special bonds CPU = 0.000 seconds
  read_data CPU = 0.004 seconds

# Dreiding potential information
neighbor	2.0 bin
neigh_modify every 1 delay 0 check yes

bond_style      harmonic
bond_coeff	1 350 1.53
bond_coeff	2 700 1.53
special_bonds lj/coul 0.0 0.0 0.5
Finding 1-2 1-3 1-4 neighbors ...
  special bond factors lj:    0        0        0.5     
  special bond factors coul:  0        0        0.5     
     2 = max # of 1-2 neighbors
     2 = max # of 1-3 neighbors
     3 = max # of 1-4 neighbors
     5 = max # of special neighbors
  special bonds CPU = 0.000 seconds


angle_style     harmonic
angle_coeff	1 60 109.5
angle_coeff	2 120 109.5

dihedral_style	multi/harmonic
dihedral_coeff	1 1.73 -4.49 0.776 6.99 0.0
dihedral_coeff	2 1.73 -4.49 0.776 6.99 0.0

pair_style	lj/cut 10.5
pair_coeff	* * 1.0 1.0 10.5
pair_coeff	3 3 2.0 0.5 10.5

compute csym all centro/atom fcc
compute peratom all pe/atom


#####################################################
# Equilibration (Brownian dynamics at 300 K)

velocity 	all create 300.0 1231
fix		1 all nve/limit 0.05
fix 2 all brownian 30.0 12908410 gamma_t 3.0 rng gaussian # Compute a correct 300K simulation, check the value for gamma_t
thermo_style	custom step temp
thermo          10000
timestep	1
run		100000
Generated 0 of 3 mixed pair_coeff terms from geometric mixing rule
WARNING: One or more atoms are time integrated more than once (src/modify.cpp:289)
Neighbor list info ...
  update: every = 1 steps, delay = 0 steps, check = yes
  max neighbors/atom: 2000, page size: 100000
  master list distance cutoff = 12.5
  ghost atom cutoff = 12.5
  binsize = 6.25, bins = 26 26 26
  2 neighbor lists, perpetual/occasional/extra = 1 1 0
  (1) pair lj/cut, perpetual
      attributes: half, newton on
      pair build: half/bin/newton
      stencil: half/bin/3d
      bin: standard
  (2) compute centro/atom, occasional
      attributes: full, newton on
      pair build: full/bin
      stencil: full/bin/3d
      bin: standard
Per MPI rank memory allocation (min/avg/max) = 8.056 | 8.056 | 8.056 Mbytes
   Step          Temp     
         0   300          
     10000   686.92156    
     20000   215.78862    
     30000   485.01606    
     40000   262.39192    
     50000   567.83933    
     60000   227.65087    
     70000   367.61886    
     80000   259.73612    
     90000   357.55037    
    100000   320.01623    
Loop time of 0.521468 on 1 procs for 100000 steps with 6 atoms

Performance: 16568.621 ns/day, 0.001 hours/ns, 191766.443 timesteps/s, 1.151 Matom-step/s
56.5% CPU use with 1 MPI tasks x 1 OpenMP threads

MPI task timing breakdown:
Section |  min time  |  avg time  |  max time  |%varavg| %total
---------------------------------------------------------------
Pair    | 0.16401    | 0.16401    | 0.16401    |   0.0 | 31.45
Bond    | 0.10886    | 0.10886    | 0.10886    |   0.0 | 20.88
Neigh   | 0.00078982 | 0.00078982 | 0.00078982 |   0.0 |  0.15
Comm    | 0.060828   | 0.060828   | 0.060828   |   0.0 | 11.66
Output  | 0.00034161 | 0.00034161 | 0.00034161 |   0.0 |  0.07
Modify  | 0.13352    | 0.13352    | 0.13352    |   0.0 | 25.60
Other   |            | 0.05311    |            |       | 10.19

Nlocal:              6 ave           6 max           6 min
Histogram: 1 0 0 0 0 0 0 0 0 0
Nghost:             42 ave          42 max          42 min
Histogram: 1 0 0 0 0 0 0 0 0 0
Neighs:              6 ave           6 max           6 min
Histogram: 1 0 0 0 0 0 0 0 0 0
FullNghs:            0 ave           0 max           0 min
Histogram: 1 0 0 0 0 0 0 0 0 0

Total # of neighbors = 6
Ave neighs/atom = 1
Ave special neighs/atom = 4
Neighbor list builds = 17
Dangerous builds = 0
unfix 1
unfix 2
write_restart 	restart.${simname}.dreiding1
write_restart 	restart.InitialFile.dreiding1
System init for write_restart ...
Generated 0 of 3 mixed pair_coeff terms from geometric mixing rule

#####################################################
# Define Settings
compute eng all pe/atom
compute eatoms all reduce sum c_eng

#####################################################
# Minimization

dump mydmp all atom 100 dump.lammpstrj

reset_timestep 0
fix 1 all nvt temp 300.0 300.0 100.0
thermo 20
thermo_style custom step pe lx ly lz press pxx pyy pzz c_eatoms
min_style cg
minimize 1e-25 1e-25 500000 1000000
Generated 0 of 3 mixed pair_coeff terms from geometric mixing rule
Per MPI rank memory allocation (min/avg/max) = 9.181 | 9.181 | 9.181 Mbytes
   Step         PotEng           Lx             Ly             Lz           Press           Pxx            Pyy            Pzz          c_eatoms   
         0   0.45232849     158.5          158.5          158.5          0.3316037      0.1183421      0.40309777     0.47337123     0.45232849   
        20   0.01932818     158.5          158.5          158.5          0.050955627    0.041237158    0.078665165    0.032964559    0.01932818   
        38   0.017998139    158.5          158.5          158.5          0.048575637    0.041186491    0.075266866    0.029273555    0.017998139  
Loop time of 0.000930588 on 1 procs for 38 steps with 6 atoms

58.4% CPU use with 1 MPI tasks x 1 OpenMP threads

Minimization stats:
  Stopping criterion = energy tolerance
  Energy initial, next-to-last, final = 
     0.452328486887988 0.0179981387997973 0.0179981387997973
  Force two-norm initial, final = 32.843423 0.95851035
  Force max component initial, final = 14.430339 0.45023444
  Final line search alpha, max atom move = 0.055526627 0.025
  Iterations, force evaluations = 38 164

MPI task timing breakdown:
Section |  min time  |  avg time  |  max time  |%varavg| %total
---------------------------------------------------------------
Pair    | 0.00040297 | 0.00040297 | 0.00040297 |   0.0 | 43.30
Bond    | 0.00018991 | 0.00018991 | 0.00018991 |   0.0 | 20.41
Neigh   | 0          | 0          | 0          |   0.0 |  0.00
Comm    | 9.5589e-05 | 9.5589e-05 | 9.5589e-05 |   0.0 | 10.27
Output  | 2.4824e-05 | 2.4824e-05 | 2.4824e-05 |   0.0 |  2.67
Modify  | 0          | 0          | 0          |   0.0 |  0.00
Other   |            | 0.0002173  |            |       | 23.35

Nlocal:              6 ave           6 max           6 min
Histogram: 1 0 0 0 0 0 0 0 0 0
Nghost:             42 ave          42 max          42 min
Histogram: 1 0 0 0 0 0 0 0 0 0
Neighs:              6 ave           6 max           6 min
Histogram: 1 0 0 0 0 0 0 0 0 0
FullNghs:            0 ave           0 max           0 min
Histogram: 1 0 0 0 0 0 0 0 0 0

Total # of neighbors = 6
Ave neighs/atom = 1
Ave special neighs/atom = 4
Neighbor list builds = 0
Dangerous builds = 0

group type1_atoms type 1
2 atoms in group type1_atoms
group type2_atoms type 2
2 atoms in group type2_atoms
group type3_atoms type 3
2 atoms in group type3_atoms

molecule mol1closeTo3PRE mol1closeTo3PRE.txt
Read molecule template mol1closeTo3PRE:
  1 molecules
  0 fragments
  4 atoms with max type 3
  3 bonds with max type 1
  0 angles with max type 0
  0 dihedrals with max type 0
  0 impropers with max type 0
molecule mol1closeTo3POST mol1closeTo3POST.txt
Read molecule template mol1closeTo3POST:
  1 molecules
  0 fragments
  4 atoms with max type 2
  3 bonds with max type 1
  0 angles with max type 0
  0 dihedrals with max type 0
  0 impropers with max type 0
molecule mol3closeTo1POST mol3closeTo1POST.txt
Read molecule template mol3closeTo1POST:
  1 molecules
  0 fragments
  4 atoms with max type 3
  3 bonds with max type 1
  0 angles with max type 0
  0 dihedrals with max type 0
  0 impropers with max type 0
molecule mol2closeTo3PRE mol2closeTo3PRE.txt
Read molecule template mol2closeTo3PRE:
  1 molecules
  0 fragments
  4 atoms with max type 3
  3 bonds with max type 1
  0 angles with max type 0
  0 dihedrals with max type 0
  0 impropers with max type 0
molecule mol2closeTo3POST mol2closeTo3POST.txt
Read molecule template mol2closeTo3POST:
  1 molecules
  0 fragments
  4 atoms with max type 3
  3 bonds with max type 1
  0 angles with max type 0
  0 dihedrals with max type 0
  0 impropers with max type 0
molecule mol3closeTo2POST mol3closeTo2POST.txt
Read molecule template mol3closeTo2POST:
  1 molecules
  0 fragments
  4 atoms with max type 3
  3 bonds with max type 1
  0 angles with max type 0
  0 dihedrals with max type 0
  0 impropers with max type 0
molecule mol2closeTo1PRE mol2closeTo1PRE.txt
Read molecule template mol2closeTo1PRE:
  1 molecules
  0 fragments
  4 atoms with max type 2
  3 bonds with max type 1
  0 angles with max type 0
  0 dihedrals with max type 0
  0 impropers with max type 0
molecule mol2closeTo1POST mol2closeTo1POST.txt
Read molecule template mol2closeTo1POST:
  1 molecules
  0 fragments
  4 atoms with max type 2
  3 bonds with max type 1
  0 angles with max type 0
  0 dihedrals with max type 0
  0 impropers with max type 0


#####################################################
# Do the reactions
fix 3 all bond/react   react reac1to2 all 1 0 10 mol1closeTo3PRE mol1closeTo3POST map_1to2.txt   react reac2to3 all 1 0 10 mol2closeTo3PRE mol2closeTo3POST map_2to3.txt    react reac3to2 all 1 0 10 mol2closeTo3PRE mol3closeTo2POST map_3to2.txt    react reac2to1 all 1 0 10 mol2closeTo1PRE mol2closeTo1POST map_2to1.txt
dynamic group bond_react_MASTER_group defined


thermo_style custom step temp f_3[*]

run 100000

CITE-CITE-CITE-CITE-CITE-CITE-CITE-CITE-CITE-CITE-CITE-CITE-CITE

Your simulation uses code contributions which should be cited:

- fix bond/react: reacter.org doi:10.1016/j.polymer.2017.09.038, doi:10.1021/acs.macromol.0c02012

@Article{Gissinger17,
 author = {J. R. Gissinger and B. D. Jensen and K. E. Wise},
 title = {Modeling Chemical Reactions in Classical Molecular Dynamics Simulations},
 journal = {Polymer},
 year =    2017,
 volume =  128,
 pages =   {211--217}
}

@Article{Gissinger20,
 author = {J. R. Gissinger, B. D. Jensen, K. E. Wise},
 title = {{REACTER}: A Heuristic Method for Reactive Molecular Dynamics},
 journal = {Macromolecules},
 year =    2020,
 volume =  53,
 number =  22,
 pages =   {9953--9961}
}

CITE-CITE-CITE-CITE-CITE-CITE-CITE-CITE-CITE-CITE-CITE-CITE-CITE

Generated 0 of 3 mixed pair_coeff terms from geometric mixing rule
Neighbor list info ...
  update: every = 1 steps, delay = 0 steps, check = yes
  max neighbors/atom: 2000, page size: 100000
  master list distance cutoff = 12.5
  ghost atom cutoff = 12.5
  binsize = 6.25, bins = 26 26 26
  3 neighbor lists, perpetual/occasional/extra = 1 2 0
  (1) pair lj/cut, perpetual
      attributes: half, newton on
      pair build: half/bin/newton
      stencil: half/bin/3d
      bin: standard
  (2) compute centro/atom, occasional
      attributes: full, newton on
      pair build: full/bin
      stencil: full/bin/3d
      bin: standard
  (3) fix bond/react, occasional, copy from (1)
      attributes: half, newton on
      pair build: copy
      stencil: none
      bin: none
Per MPI rank memory allocation (min/avg/max) = 9.493 | 9.493 | 9.493 Mbytes
   Step          Temp          f_3[1]         f_3[2]         f_3[3]         f_3[4]    
        38   320.01623      0              0              0              0            
        40   303.19392      0              0              0              0            
        60   158.35638      0              0              0              0            
        80   262.9622       0              0              0              0            
       100   203.36939      0              0              0              0            
       120   266.76393      0              0              0              0            
       140   256.41516      0              0              0              0            
       160   333.53493      0              0              0              0            
       180   360.64049      0              0              0              0            
       200   339.24673      0              0              0              0            
       220   481.61721      0              0              0              0            
       240   526.50793      0              0              0              0            
       260   488.9893       0              0              0              0            
       280   553.38834      0              0              0              0            
       300   489.83735      0              0              0              0            
       320   466.90729      0              0              0              0            
       340   404.455        0              0              0              0            
       360   249.52669      0              0              0              0            
       380   290.61546      0              0              0              0            
       400   158.6299       0              0              0              0            
       420   238.29279      0              0              0              0            
       440   151.94797      0              0              0              0            
       460   213.90898      0              0              0              0            
       480   168.72444      0              0              0              0            
       500   199.15353      0              0              0              0            
       520   224.00206      0              0              0              0            
       540   236.48905      0              0              0              0            
       560   227.48446      0              0              0              0            
       580   307.27372      0              0              0              0            
       600   246.7311       0              0              0              0            
       620   421.4657       0              0              0              0            
       640   320.86389      0              0              0              0            
       660   441.48322      0              0              0              0            
       680   345.84594      0              0              0              0            
       700   419.8655       0              0              0              0            
       720   429.12634      0              0              0              0            
       740   392.21818      0              0              0              0            
       760   421.38128      0              0              0              0            
       780   313.88943      0              0              0              0            
       800   307.21233      0              0              0              0            
       820   274.30866      0              0              0              0            
       840   249.41636      0              0              0              0            
       860   204.9561       0              0              0              0            
       880   181.65672      0              0              0              0            
       900   159.83292      0              0              0              0            
       920   174.97672      0              0              0              0            
       940   127.39248      0              0              0              0            
       960   217.10342      0              0              0              0            
       980   120.90041      0              0              0              0            
      1000   221.50417      0              0              0              0            
      1020   152.49287      0              0              0              0            
      1040   208.65692      0              0              0              0            
      1060   199.44193      0              0              0              0            
      1080   247.7123       0              0              0              0            
      1100   225.10488      0              0              0              0            
      1120   243.69067      0              0              0              0            
      1140   242.29022      0              0              0              0            
      1160   304.6744       0              0              0              0            
      1180   225.09542      0              0              0              0            
      1200   378.73735      0              0              0              0            
      1220   266.9338       0              0              0              0            
      1240   334.01543      0              0              0              0            
      1260   331.47279      0              0              0              0            
      1280   365.69556      0              0              0              0            
      1300   397.56029      0              0              0              0            
      1320   351.01024      0              0              0              0            
      1340   410.68611      0              0              0              0            
      1360   320.63501      0              0              0              0            
      1380   375.52668      0              0              0              0            
      1400   323.25406      0              0              0              0            
      1420   309.40019      0              0              0              0            
      1440   274.63452      0              0              0              0            
      1460   224.36503      0              0              0              0            
      1480   186.64097      0              0              0              0            
      1500   219.73084      0              0              0              0            
      1520   121.1703       0              0              0              0            
      1540   209.45135      0              0              0              0            
      1560   122.11191      0              0              0              0            
      1580   172.13592      0              0              0              0            
      1600   119.69777      0              0              0              0            
      1620   201.50239      0              0              0              0            
      1640   174.00852      0              0              0              0            
      1660   206.18633      0              0              0              0            
      1680   271.98728      0              0              0              0            
      1700   287.22394      0              0              0              0            
      1720   297.17053      0              0              0              0            
      1740   445.40414      0              0              0              0            
      1760   359.66347      0              0              0              0            
      1780   409.64919      0              0              0              0            
      1800   348.37796      0              0              0              0            
      1820   397.82861      0              0              0              0            
      1840   352.07553      0              0              0              0            
      1860   349.32246      0              0              0              0            
      1880   383.16503      0              0              0              0            
      1900   247.61331      0              0              0              0            
      1920   325.22805      0              0              0              0            
      1940   242.25624      0              0              0              0            
      1960   288.08293      0              0              0              0            
      1980   236.66331      0              0              0              0            
      2000   238.16969      0              0              0              0            
      2020   219.05796      0              0              0              0            
      2040   212.62603      0              0              0              0            
      2060   191.94271      0              0              0              0            
      2080   276.12106      0              0              0              0            
      2100   181.4823       0              0              0              0            
      2120   290.47597      0              0              0              0            
      2140   196.53017      0              0              0              0            
      2160   344.91941      0              0              0              0            
      2180   300.56321      0              0              0              0            
      2200   419.69891      0              0              0              0            
      2220   498.75578      0              0              0              0            
      2240   480.43839      0              0              0              0            
      2260   519.008        0              0              0              0            
      2280   501.76752      0              0              0              0            
      2300   480.91457      0              0              0              0            
      2320   469.29698      0              0              0              0            
      2340   378.57077      0              0              0              0            
      2360   362.06635      0              0              0              0            
      2380   240.1852       0              0              0              0            
      2400   274.79141      0              0              0              0            
      2420   299.68528      0              0              0              0            
      2440   226.86507      0              0              0              0            
      2460   274.26723      0              0              0              0            
      2480   167.28282      0              0              0              0            
      2500   263.2874       0              0              0              0            
      2520   223.47147      0              0              0              0            
      2540   294.97709      0              0              0              0            
      2560   225.95362      0              0              0              0            
      2580   259.37505      0              0              0              0            
      2600   280.33879      0              0              0              0            
      2620   311.21734      0              0              0              0            
      2640   282.42711      0              0              0              0            
      2660   388.16052      0              0              0              0            
      2680   273.26858      0              0              0              0            
      2700   397.23231      0              0              0              0            
      2720   310.14319      0              0              0              0            
      2740   425.78795      0              0              0              0            
      2760   364.12084      0              0              0              0            
      2780   408.18567      0              0              0              0            
      2800   423.83469      0              0              0              0            
      2820   367.45533      0              0              0              0            
      2840   404.91503      0              0              0              0            
      2860   338.87496      0              0              0              0            
      2880   321.80157      0              0              0              0            
      2900   306.55839      0              0              0              0            
      2920   242.90191      0              0              0              0            
      2940   249.78287      0              0              0              0            
      2960   219.07976      0              0              0              0            
      2980   190.46545      0              0              0              0            
      3000   225.39936      0              0              0              0            
      3020   162.19836      0              0              0              0            
      3040   241.21091      0              0              0              0            
      3060   142.77525      0              0              0              0            
      3080   244.28277      0              0              0              0            
      3100   167.86285      0              0              0              0            
      3120   278.72177      0              0              0              0            
      3140   278.71193      0              0              0              0            
      3160   305.3132       0              0              0              0            
      3180   318.39416      0              0              0              0            
      3200   435.06723      0              0              0              0            
      3220   406.96025      0              0              0              0            
      3240   478.89326      0              0              0              0            
      3260   400.39928      0              0              0              0            
      3280   500.20974      0              0              0              0            
      3300   322.53017      0              0              0              0            
      3320   438.17013      0              0              0              0            
      3340   369.23275      0              0              0              0            
      3360   316.57563      0              0              0              0            
      3380   332.32751      0              0              0              0            
      3400   258.80603      0              0              0              0            
      3420   273.86663      0              0              0              0            
      3440   250.13442      0              0              0              0            
      3460   283.06274      0              0              0              0            
      3480   282.0196       0              0              0              0            
      3500   235.20703      0              0              0              0            
      3520   260.45916      0              0              0              0            
      3540   273.93661      0              0              0              0            
      3560   272.8008       0              0              0              0            
      3580   343.16767      0              0              0              0            
      3600   204.82615      0              0              0              0            
      3620   353.36919      0              0              0              0            
      3640   233.3113       0              0              0              0            
      3660   387.83121      0              0              0              0            
      3680   281.84612      0              0              0              0            
      3700   331.71081      0              0              0              0            
      3720   332.07738      0              0              0              0            
      3740   366.61982      0              0              0              0            
      3760   348.56655      0              0              0              0            
      3780   372.28971      0              0              0              0            
      3800   332.26841      0              0              0              0            
      3820   409.70283      0              0              0              0            
      3840   294.75385      0              0              0              0            
      3860   394.8839       0              0              0              0            
      3880   278.6151       0              0              0              0            
      3900   283.35527      0              0              0              0            
      3920   288.54881      0              0              0              0            
      3940   244.7223       0              0              0              0            
      3960   267.15301      0              0              0              0            
      3980   162.76288      0              0              0              0            
      4000   223.06691      0              0              0              0            
      4020   183.89167      0              0              0              0            
      4040   201.16524      0              0              0              0            
      4060   205.67503      0              0              0              0            
      4080   189.90137      0              0              0              0            
      4100   197.78414      0              0              0              0            
      4120   242.62508      0              0              0              0            
      4140   229.20814      0              0              0              0            
      4160   387.86202      0              0              0              0            
      4180   265.86518      0              0              0              0            
      4200   465.92793      0              0              0              0            
      4220   314.80304      0              0              0              0            
      4240   527.17601      0              0              0              0            
      4260   474.76492      0              0              0              0            
      4280   458.24285      0              0              0              0            
      4300   456.63993      0              0              0              0            
      4320   374.27843      0              0              0              0            
      4340   374.17823      0              0              0              0            
      4360   370.38757      0              0              0              0            
      4380   302.13241      0              0              0              0            
      4400   344.41935      0              0              0              0            
      4420   221.4981       0              0              0              0            
      4440   321.6015       0              0              0              0            
      4460   255.72668      0              0              0              0            
      4480   263.04834      0              0              0              0            
      4500   315.36391      0              0              0              0            
      4520   238.68752      0              0              0              0            
      4540   327.12386      0              0              0              0            
      4560   205.10234      0              0              0              0            
      4580   318.82232      0              0              0              0            
      4600   276.90554      0              0              0              0            
      4620   315.96377      0              0              0              0            
      4640   299.34279      0              0              0              0            
      4660   301.84152      0              0              0              0            
      4680   301.84139      0              0              0              0            
      4700   376.23349      0              0              0              0            
      4720   322.02196      0              0              0              0            
      4740   439.29893      0              0              0              0            
      4760   264.80297      0              0              0              0            
      4780   513.99159      0              0              0              0            
      4800   371.04227      0              0              0              0            
      4820   506.56228      0              0              0              0            
      4840   498.03936      0              0              0              0            
      4860   434.62982      0              0              0              0            
      4880   425.92729      0              0              0              0            
      4900   368.8352       0              0              0              0            
      4920   361.93046      0              0              0              0            
      4940   299.76561      0              0              0              0            
      4960   254.24698      0              0              0              0            
      4980   274.84258      0              0              0              0            
      5000   165.97561      0              0              0              0            
      5020   212.34185      0              0              0              0            
      5040   216.8302       0              0              0              0            
      5060   178.78287      0              0              0              0            
      5080   239.73658      0              0              0              0            
      5100   148.44262      0              0              0              0            
      5120   267.12454      0              0              0              0            
      5140   170.88128      0              0              0              0            
      5160   308.62701      0              0              0              0            
      5180   276.72907      0              0              0              0            
      5200   339.29473      0              0              0              0            
      5220   363.25357      0              0              0              0            
      5240   424.84822      0              0              0              0            
      5260   462.95087      0              0              0              0            
      5280   520.86254      0              0              0              0            
      5300   409.8699       0              0              0              0            
      5320   536.61849      0              0              0              0            
      5340   313.24972      0              0              0              0            
      5360   471.35254      0              0              0              0            
      5380   344.61199      0              0              0              0            
      5400   393.92881      0              0              0              0            
      5420   331.04078      0              0              0              0            
      5440   298.30876      0              0              0              0            
      5460   324.05228      0              0              0              0            
      5480   282.83441      0              0              0              0            
      5500   339.60513      0              0              0              0            
      5520   285.38472      0              0              0              0            
      5540   254.99984      0              0              0              0            
      5560   286.40416      0              0              0              0            
      5580   277.2123       0              0              0              0            
      5600   250.09805      0              0              0              0            
      5620   307.42147      0              0              0              0            
      5640   244.05828      0              0              0              0            
      5660   317.83662      0              0              0              0            
      5680   185.258        0              0              0              0            
      5700   357.70055      0              0              0              0            
      5720   240.73287      0              0              0              0            
      5740   355.0705       0              0              0              0            
      5760   325.99437      0              0              0              0            
      5780   360.37093      0              0              0              0            
      5800   351.46953      0              0              0              0            
      5820   443.72663      0              0              0              0            
      5840   463.35653      0              0              0              0            
      5860   534.97256      0              0              0              0            
      5880   380.30332      0              0              0              0            
      5900   513.12762      0              0              0              0            
      5920   342.77476      0              0              0              0            
      5940   445.83451      0              0              0              0            
      5960   323.09909      0              0              0              0            
      5980   262.35777      0              0              0              0            
      6000   239.18258      0              0              0              0            
      6020   188.97935      0              0              0              0            
      6040   249.8113       0              0              0              0            
      6060   172.05903      0              0              0              0            
      6080   212.71631      0              0              0              0            
      6100   176.56957      0              0              0              0            
      6120   183.43955      0              0              0              0            
      6140   215.52719      0              0              0              0            
      6160   246.30678      0              0              0              0            
      6180   218.72458      0              0              0              0            
      6200   284.33593      0              0              0              0            
      6220   229.22286      0              0              0              0            
      6240   378.57885      0              0              0              0            
      6260   238.27671      0              0              0              0            
      6280   412.11983      0              0              0              0            
      6300   328.59823      0              0              0              0            
      6320   385.73316      0              0              0              0            
      6340   341.02698      0              0              0              0            
      6360   367.99872      0              0              0              0            
      6380   354.75602      0              0              0              0            
      6400   357.64434      0              0              0              0            
      6420   311.44799      0              0              0              0            
      6440   390.03993      0              0              0              0            
      6460   243.24901      0              0              0              0            
      6480   364.29588      0              0              0              0            
      6500   265.53623      0              0              0              0            
      6520   309.2508       0              0              0              0            
      6540   297.27496      0              0              0              0            
      6560   272.70664      0              0              0              0            
      6580   307.85967      0              0              0              0            
      6600   198.72739      0              0              0              0            
      6620   337.04945      0              0              0              0            
      6640   223.43108      0              0              0              0            
      6660   273.21521      0              0              0              0            
      6680   266.38401      0              0              0              0            
      6700   248.88536      0              0              0              0            
      6720   264.63407      0              0              0              0            
      6740   327.27406      0              0              0              0            
      6760   284.05792      0              0              0              0            
      6780   379.2058       0              0              0              0            
      6800   262.19026      0              0              0              0            
      6820   473.58027      0              0              0              0            
      6840   340.07671      0              0              0              0            
      6860   509.42568      0              0              0              0            
      6880   412.01048      0              0              0              0            
      6900   454.40209      0              0              0              0            
      6920   394.06705      0              0              0              0            
      6940   369.78022      0              0              0              0            
      6960   358.57091      0              0              0              0            
      6980   344.33599      0              0              0              0            
      7000   250.78412      0              0              0              0            
      7020   268.4933       0              0              0              0            
      7040   165.08977      0              0              0              0            
      7060   234.36979      0              0              0              0            
      7080   195.19202      0              0              0              0            
      7100   197.92805      0              0              0              0            
      7120   190.03055      0              0              0              0            
      7140   154.86841      0              0              0              0            
      7160   252.90203      0              0              0              0            
      7180   173.68004      0              0              0              0            
      7200   294.62601      0              0              0              0            
      7220   224.92867      0              0              0              0            
      7240   306.41366      0              0              0              0            
      7260   334.78647      0              0              0              0            
      7280   408.47341      0              0              0              0            
      7300   424.96448      0              0              0              0            
      7320   461.49953      0              0              0              0            
      7340   422.09484      0              0              0              0            
      7360   541.20354      0              0              0              0            
      7380   327.29723      0              0              0              0            
      7400   489.92543      0              0              0              0            
      7420   327.76986      0              0              0              0            
      7440   423.08994      0              0              0              0            
      7460   334.70145      0              0              0              0            
      7480   350.74859      0              0              0              0            
      7500   316.45505      0              0              0              0            
      7520   257.64214      0              0              0              0            
      7540   297.19994      0              0              0              0            
      7560   277.20659      0              0              0              0            
      7580   243.38936      0              0              0              0            
      7600   256.0059       0              0              0              0            
      7620   204.25702      0              0              0              0            
      7640   223.56331      0              0              0              0            
      7660   239.11819      0              0              0              0            
      7680   234.02854      0              0              0              0            
      7700   278.89503      0              0              0              0            
      7720   176.61711      0              0              0              0            
      7740   315.40498      0              0              0              0            
      7760   240.19442      0              0              0              0            
      7780   415.56981      0              0              0              0            
      7800   380.75548      0              0              0              0            
      7820   470.88611      0              0              0              0            
      7840   445.41448      0              0              0              0            
      7860   514.88142      0              0              0              0            
      7880   558.95672      0              0              0              0            
      7900   523.4194       0              0              0              0            
      7920   393.84121      0              0              0              0            
      7940   456.55588      0              0              0              0            
      7960   266.52214      0              0              0              0            
      7980   327.27185      0              0              0              0            
      8000   221.99582      0              0              0              0            
      8020   287.39347      0              0              0              0            
      8040   220.69059      0              0              0              0            
      8060   216.40049      0              0              0              0            
      8080   250.95214      0              0              0              0            
      8100   202.85011      0              0              0              0            
      8120   257.10576      0              0              0              0            
      8140   274.5411       0              0              0              0            
      8160   246.27684      0              0              0              0            
      8180   253.43113      0              0              0              0            
      8200   276.5123       0              0              0              0            
      8220   332.62219      0              0              0              0            
      8240   350.3177       0              0              0              0            
      8260   307.23159      0              0              0              0            
      8280   416.43373      0              0              0              0            
      8300   283.02631      0              0              0              0            
      8320   483.88765      0              0              0              0            
      8340   335.03495      0              0              0              0            
      8360   470.79         0              0              0              0            
      8380   349.81773      0              0              0              0            
      8400   388.87567      0              0              0              0            
      8420   308.30049      0              0              0              0            
      8440   284.42169      0              0              0              0            
      8460   260.2465       0              0              0              0            
      8480   235.69219      0              0              0              0            
      8500   157.65768      0              0              0              0            
      8520   193.23739      0              0              0              0            
      8540   120.98356      0              0              0              0            
      8560   196.96395      0              0              0              0            
      8580   138.18679      0              0              0              0            
      8600   198.15134      0              0              0              0            
      8620   168.30387      0              0              0              0            
      8640   164.89174      0              0              0              0            
      8660   252.97896      0              0              0              0            
      8680   245.6359       0              0              0              0            
      8700   296.73212      0              0              0              0            
      8720   309.52548      0              0              0              0            
      8740   353.18002      0              0              0              0            
      8760   351.38748      0              0              0              0            
      8780   365.45967      0              0              0              0            
      8800   401.39245      0              0              0              0            
      8820   425.83077      0              0              0              0            
      8840   292.75316      0              0              0              0            
      8860   413.98629      0              0              0              0            
      8880   249.94403      0              0              0              0            
      8900   408.6748       0              0              0              0            
      8920   276.07365      0              0              0              0            
      8940   350.47176      0              0              0              0            
      8960   223.61852      0              0              0              0            
      8980   276.41261      0              0              0              0            
      9000   274.439        0              0              0              0            
      9020   259.69861      0              0              0              0            
      9040   255.10063      0              0              0              0            
      9060   264.82777      0              0              0              0            
      9080   193.26149      0              0              0              0            
      9100   266.4197       0              0              0              0            
      9120   208.9202       0              0              0              0            
      9140   279.86007      0              0              0              0            
      9160   223.03432      0              0              0              0            
      9180   286.53897      0              0              0              0            
      9200   317.33821      0              0              0              0            
      9220   256.39598      0              0              0              0            
      9240   377.75727      0              0              0              0            
      9260   410.70214      0              0              0              0            
      9280   465.83396      0              0              0              0            
      9300   374.90607      0              0              0              0            
      9320   426.75699      0              0              0              0            
      9340   438.78338      0              0              0              0            
      9360   455.41515      0              0              0              0            
      9380   390.58793      0              0              0              0            
      9400   413.84407      0              0              0              0            
      9420   218.50812      0              0              0              0            
      9440   344.6054       0              0              0              0            
      9460   198.29587      0              0              0              0            
      9480   294.93687      0              0              0              0            
      9500   161.24919      0              0              0              0            
      9520   207.15187      0              0              0              0            
      9540   182.93112      0              0              0              0            
      9560   191.38735      0              0              0              0            
      9580   222.10567      0              0              0              0            
      9600   214.26915      0              0              0              0            
      9620   196.29925      0              0              0              0            
      9640   244.30664      0              0              0              0            
      9660   245.16268      0              0              0              0            
      9680   338.47297      0              0              0              0            
      9700   299.84651      0              0              0              0            
      9720   435.33352      0              0              0              0            
      9740   431.72605      0              0              0              0            
      9760   405.0177       0              0              0              0            
      9780   580.07924      0              0              0              0            
      9800   420.62201      0              0              0              0            
      9820   535.86426      0              0              0              0            
      9840   373.39505      0              0              0              0            
      9860   472.35784      0              0              0              0            
      9880   362.41175      0              0              0              0            
      9900   374.95186      0              0              0              0            
      9920   377.73777      0              0              0              0            
      9940   339.18723      0              0              0              0            
      9960   311.16208      0              0              0              0            
      9980   347.45964      0              0              0              0            
     10000   214.00346      0              0              0              0            
     10020   337.87826      0              0              0              0            
     10040   191.20231      0              0              0              0            
     10060   297.08896      0              0              0              0            
     10080   204.33807      0              0              0              0            
     10100   230.93347      0              0              0              0            
     10120   237.46955      0              0              0              0            
     10140   205.93315      0              0              0              0            
     10160   262.47607      0              0              0              0            
     10180   227.66916      0              0              0              0            
     10200   253.10124      0              0              0              0            
     10220   284.00764      0              0              0              0            
     10240   287.87139      0              0              0              0            
     10260   385.24611      0              0              0              0            
     10280   361.2623       0              0              0              0            
     10300   459.74423      0              0              0              0            
     10320   521.12984      0              0              0              0            
     10340   419.82762      0              0              0              0            
     10360   560.83664      0              0              0              0            
     10380   410.75434      0              0              0              0            
     10400   540.3367       0              0              0              0            
     10420   318.32237      0              0              0              0            
     10440   317.87788      0              0              0              0            
     10460   239.81279      0              0              0              0            
     10480   224.58869      0              0              0              0            
     10500   244.62497      0              0              0              0            
     10520   233.35292      0              0              0              0            
     10540   164.82283      0              0              0              0            
     10560   207.2616       0              0              0              0            
     10580   188.51831      0              0              0              0            
     10600   281.63266      0              0              0              0            
     10620   192.65934      0              0              0              0            
     10640   255.6681       0              0              0              0            
     10660   218.08609      0              0              0              0            
     10680   236.2165       0              0              0              0            
     10700   365.15336      0              0              0              0            
     10720   327.87215      0              0              0              0            
     10740   343.29724      0              0              0              0            
     10760   314.24474      0              0              0              0            
     10780   389.84433      0              0              0              0            
     10800   416.9036       0              0              0              0            
     10820   377.58134      0              0              0              0            
     10840   404.40732      0              0              0              0            
     10860   379.21488      0              0              0              0            
     10880   290.34208      0              0              0              0            
     10900   370.04026      0              0              0              0            
     10920   244.33158      0              0              0              0            
     10940   256.97727      0              0              0              0            
     10960   152.77261      0              0              0              0            
     10980   185.36081      0              0              0              0            
     11000   134.03934      0              0              0              0            
     11020   135.00121      0              0              0              0            
     11040   147.86533      0              0              0              0            
     11060   149.485        0              0              0              0            
     11080   127.0673       0              0              0              0            
     11100   190.9922       0              0              0              0            
     11120   162.60551      0              0              0              0            
     11140   222.54858      0              0              0              0            
     11160   182.81671      0              0              0              0            
     11180   279.4729       0              0              0              0            
     11200   248.66268      0              0              0              0            
     11220   281.31999      0              0              0              0            
     11240   339.06192      0              0              0              0            
     11260   273.95701      0              0              0              0            
     11280   348.06352      0              0              0              0            
     11300   303.8538       0              0              0              0            
     11320   393.16252      0              0              0              0            
     11340   322.0382       0              0              0              0            
     11360   339.40075      0              0              0              0            
     11380   320.72659      0              0              0              0            
     11400   318.51836      0              0              0              0            
     11420   302.52579      0              0              0              0            
     11440   353.20216      0              0              0              0            
     11460   263.7233       0              0              0              0            
     11480   294.28532      0              0              0              0            
     11500   200.31655      0              0              0              0            
     11520   285.05522      0              0              0              0            
     11540   187.83486      0              0              0              0            
     11560   227.4712       0              0              0              0            
     11580   133.75098      0              0              0              0            
     11600   118.85819      0              0              0              0            
     11620   139.35121      0              0              0              0            
     11640   151.22519      0              0              0              0            
     11660   139.44014      0              0              0              0            
     11680   119.51773      0              0              0              0            
     11700   108.35693      0              0              0              0            
     11720   161.33224      0              0              0              0            
     11740   169.58338      0              0              0              0            
     11760   248.62438      0              0              0              0            
     11780   226.77817      0              0              0              0            
     11800   238.90888      0              0              0              0            
     11820   324.49839      0              0              0              0            
     11840   320.33013      0              0              0              0            
     11860   432.08176      0              0              0              0            
     11880   282.70175      0              0              0              0            
     11900   417.44908      0              0              0              0            
     11920   305.48475      0              0              0              0            
     11940   376.53539      0              0              0              0            
     11960   358.22617      0              0              0              0            
     11980   299.14195      0              0              0              0            
     12000   307.48963      0              0              0              0            
     12020   297.30655      0              0              0              0            
     12040   265.08839      0              0              0              0            
     12060   271.97807      0              0              0              0            
     12080   219.48001      0              0              0              0            
     12100   297.81127      0              0              0              0            
     12120   153.70541      0              0              0              0            
     12140   237.6087       0              0              0              0            
     12160   177.61634      0              0              0              0            
     12180   193.47896      0              0              0              0            
     12200   198.64776      0              0              0              0            
     12220   191.75607      0              0              0              0            
     12240   225.50569      0              0              0              0            
     12260   179.4158       0              0              0              0            
     12280   246.50637      0              0              0              0            
     12300   307.34783      0              0              0              0            
     12320   312.48123      0              0              0              0            
     12340   389.24314      0              0              0              0            
     12360   419.73427      0              0              0              0            
     12380   435.30147      0              0              0              0            
     12400   471.71559      0              0              0              0            
     12420   416.81011      0              0              0              0            
     12440   549.55355      0              0              0              0            
     12460   348.16532      0              0              0              0            
     12480   453.10878      0              0              0              0            
     12500   298.58149      0              0              0              0            
     12520   294.1595       0              0              0              0            
     12540   283.90885      0              0              0              0            
     12560   239.91077      0              0              0              0            
     12580   253.49163      0              0              0              0            
     12600   214.75645      0              0              0              0            
     12620   203.7272       0              0              0              0            
     12640   251.56481      0              0              0              0            
     12660   191.23852      0              0              0              0            
     12680   313.3446       0              0              0              0            
     12700   206.77259      0              0              0              0            
     12720   230.58203      0              0              0              0            
     12740   233.32223      0              0              0              0            
     12760   269.95136      0              0              0              0            
     12780   326.88361      0              0              0              0            
     12800   274.06694      0              0              0              0            
     12820   312.95804      0              0              0              0            
     12840   271.54684      0              0              0              0            
     12860   304.56326      0              0              0              0            
     12880   372.6761       0              0              0              0            
     12900   344.57085      0              0              0              0            
     12920   272.73778      0              0              0              0            
     12940   296.42948      0              0              0              0            
     12960   286.69401      0              0              0              0            
     12980   393.81767      0              0              0              0            
     13000   262.6498       0              0              0              0            
     13020   366.20606      0              0              0              0            
     13040   249.8986       0              0              0              0            
     13060   315.65985      0              0              0              0            
     13080   308.64891      0              0              0              0            
     13100   276.74257      0              0              0              0            
     13120   285.33593      0              0              0              0            
     13140   270.90473      0              0              0              0            
     13160   244.975        0              0              0              0            
     13180   238.88116      0              0              0              0            
     13200   188.36181      0              0              0              0            
     13220   241.44752      0              0              0              0            
     13240   145.79063      0              0              0              0            
     13260   191.61037      0              0              0              0            
     13280   148.66971      0              0              0              0            
     13300   127.32356      0              0              0              0            
     13320   181.02455      0              0              0              0            
     13340   143.74705      0              0              0              0            
     13360   217.63697      0              0              0              0            
     13380   149.16586      0              0              0              0            
     13400   225.14377      0              0              0              0            
     13420   266.31935      0              0              0              0            
     13440   289.6057       0              0              0              0            
     13460   366.00394      0              0              0              0            
     13480   342.43498      0              0              0              0            
     13500   331.9861       0              0              0              0            
     13520   445.46671      0              0              0              0            
     13540   345.56187      0              0              0              0            
     13560   513.93377      0              0              0              0            
     13580   304.63459      0              0              0              0            
     13600   444.35757      0              0              0              0            
     13620   283.65123      0              0              0              0            
     13640   340.08074      0              0              0              0            
     13660   311.69587      0              0              0              0            
     13680   262.43575      0              0              0              0            
     13700   255.88951      0              0              0              0            
     13720   195.09169      0              0              0              0            
     13740   202.65613      0              0              0              0            
     13760   219.60269      0              0              0              0            
     13780   151.64447      0              0              0              0            
     13800   226.29985      0              0              0              0            
     13820   141.11536      0              0              0              0            
     13840   174.14311      0              0              0              0            
     13860   168.1265       0              0              0              0            
     13880   148.46337      0              0              0              0            
     13900   230.00381      0              0              0              0            
     13920   151.16794      0              0              0              0            
     13940   300.88262      0              0              0              0            
     13960   229.10697      0              0              0              0            
     13980   339.25971      0              0              0              0            
     14000   405.41902      0              0              0              0            
     14020   399.68328      0              0              0              0            
     14040   450.83374      0              0              0              0            
     14060   402.56441      0              0              0              0            
     14080   418.99454      0              0              0              0            
     14100   507.64962      0              0              0              0            
     14120   329.74701      0              0              0              0            
     14140   495.63792      0              0              0              0            
     14160   230.22999      0              0              0              0            
     14180   335.36539      0              0              0              0            
     14200   236.65055      0              0              0              0            
     14220   276.77382      0              0              0              0            
     14240   234.37166      0              0              0              0            
     14260   184.90698      0              0              0              0            
     14280   220.72988      0              0              0              0            
     14300   170.6607       0              0              0              0            
     14320   215.18953      0              0              0              0            
     14340   229.763        0              0              0              0            
     14360   192.15792      0              0              0              0            
     14380   272.65104      0              0              0              0            
     14400   212.31815      0              0              0              0            
     14420   306.29129      0              0              0              0            
     14440   390.01129      0              0              0              0            
     14460   383.71193      0              0              0              0            
     14480   612.69617      0              0              0              0            
     14500   436.40166      0              0              0              0            
     14520   632.65435      0              0              0              0            
     14540   492.55793      0              0              0              0            
     14560   552.40891      0              0              0              0            
     14580   501.7415       0              0              0              0            
     14600   407.36953      0              0              0              0            
     14620   397.38176      0              0              0              0            
     14640   345.18307      0              0              0              0            
     14660   323.4203       0              0              0              0            
     14680   417.3314       0              0              0              0            
     14700   222.96327      0              0              0              0            
     14720   348.10132      0              0              0              0            
     14740   186.49081      0              0              0              0            
     14760   302.17047      0              0              0              0            
     14780   235.42353      0              0              0              0            
     14800   243.52458      0              0              0              0            
     14820   251.06527      0              0              0              0            
     14840   191.50805      0              0              0              0            
     14860   258.15496      0              0              0              0            
     14880   235.44106      0              0              0              0            
     14900   273.5647       0              0              0              0            
     14920   294.82799      0              0              0              0            
     14940   271.67272      0              0              0              0            
     14960   372.95176      0              0              0              0            
     14980   370.63635      0              0              0              0            
     15000   465.52405      0              0              0              0            
     15020   517.02845      0              0              0              0            
     15040   486.60809      0              0              0              0            
     15060   662.18378      0              0              0              0            
     15080   423.87155      0              0              0              0            
     15100   494.48895      0              0              0              0            
     15120   374.30309      0              0              0              0            
     15140   380.42188      0              0              0              0            
     15160   292.1971       0              0              0              0            
     15180   276.54581      0              0              0              0            
     15200   220.9561       0              0              0              0            
     15220   230.66526      0              0              0              0            
     15240   181.7181       0              0              0              0            
     15260   311.81669      0              0              0              0            
     15280   205.70367      0              0              0              0            
     15300   255.05706      0              0              0              0            
     15320   197.51572      0              0              0              0            
     15340   261.39932      0              0              0              0            
     15360   305.99609      0              0              0              0            
     15380   274.81264      0              0              0              0            
     15400   338.37758      0              0              0              0            
     15420   275.54071      0              0              0              0            
     15440   351.78977      0              0              0              0            
     15460   409.63372      0              0              0              0            
     15480   389.21284      0              0              0              0            
     15500   416.4396       0              0              0              0            
     15520   377.32135      0              0              0              0            
     15540   397.70411      0              0              0              0            
     15560   396.56265      0              0              0              0            
     15580   336.9558       0              0              0              0            
     15600   383.82094      0              0              0              0            
     15620   217.10996      0              0              0              0            
     15640   263.67666      0              0              0              0            
     15660   154.20462      0              0              0              0            
[...]
     95800   305.18057      0              0              0              0            
     95820   218.0672       0              0              0              0            
     95840   337.26584      0              0              0              0            
     95860   209.03619      0              0              0              0            
     95880   283.73798      0              0              0              0            
     95900   247.66262      0              0              0              0            
     95920   312.55892      0              0              0              0            
     95940   192.46175      0              0              0              0            
     95960   304.3474       0              0              0              0            
     95980   278.80588      0              0              0              0            
     96000   301.5644       0              0              0              0            
     96020   259.71657      0              0              0              0            
     96040   383.86222      0              0              0              0            
     96060   381.69476      0              0              0              0            
     96080   414.17781      0              0              0              0            
     96100   476.61777      0              0              0              0            
     96120   505.4951       0              0              0              0            
     96140   471.97314      0              0              0              0            
     96160   414.1425       0              0              0              0            
     96180   518.47764      0              0              0              0            
     96200   384.95582      0              0              0              0            
     96220   313.81695      0              0              0              0            
     96240   241.18404      0              0              0              0            
     96260   308.87154      0              0              0              0            
     96280   178.10443      0              0              0              0            
     96300   242.21061      0              0              0              0            
     96320   191.4382       0              0              0              0            
     96340   233.93473      0              0              0              0            
     96360   128.22937      0              0              0              0            
     96380   260.80276      0              0              0              0            
     96400   192.96264      0              0              0              0            
     96420   237.32807      0              0              0              0            
     96440   193.43701      0              0              0              0            
     96460   323.86059      0              0              0              0            
     96480   240.23031      0              0              0              0            
     96500   291.94331      0              0              0              0            
     96520   331.68844      0              0              0              0            
     96540   380.16047      0              0              0              0            
     96560   275.55504      0              0              0              0            
     96580   350.76059      0              0              0              0            
     96600   374.49525      0              0              0              0            
     96620   335.89972      0              0              0              0            
     96640   325.9959       0              0              0              0            
     96660   368.70274      0              0              0              0            
     96680   360.90045      0              0              0              0            
     96700   248.07561      0              0              0              0            
     96720   356.72174      0              0              0              0            
     96740   321.104        0              0              0              0            
     96760   313.49019      0              0              0              0            
     96780   241.25143      0              0              0              0            
     96800   360.76625      0              0              0              0            
     96820   250.83417      0              0              0              0            
     96840   296.14862      0              0              0              0            
     96860   264.8397       0              0              0              0            
     96880   374.43205      0              0              0              0            
     96900   201.44954      0              0              0              0            
     96920   313.804        0              0              0              0            
     96940   269.00666      0              0              0              0            
     96960   330.03862      0              0              0              0            
     96980   226.54315      0              0              0              0            
     97000   355.2051       0              0              0              0            
     97020   308.08844      0              0              0              0            
     97040   315.9295       0              0              0              0            
     97060   365.72894      0              0              0              0            
     97080   452.21689      0              0              0              0            
     97100   389.30811      0              0              0              0            
     97120   390.10256      0              0              0              0            
     97140   460.32152      0              0              0              0            
     97160   433.31761      0              0              0              0            
     97180   362.68531      0              0              0              0            
     97200   378.28831      0              0              0              0            
     97220   399.69404      0              0              0              0            
     97240   249.56213      0              0              0              0            
     97260   287.70271      0              0              0              0            
     97280   235.26526      0              0              0              0            
     97300   261.92968      0              0              0              0            
     97320   147.40701      0              0              0              0            
     97340   230.07301      0              0              0              0            
     97360   173.25985      0              0              0              0            
     97380   200.3801       0              0              0              0            
     97400   162.61957      0              0              0              0            
     97420   274.41107      0              0              0              0            
     97440   186.31358      0              0              0              0            
     97460   254.58876      0              0              0              0            
     97480   255.42591      0              0              0              0            
     97500   420.25939      0              0              0              0            
     97520   327.64447      0              0              0              0            
     97540   493.8962       0              0              0              0            
     97560   494.40342      0              0              0              0            
     97580   520.31978      0              0              0              0            
     97600   457.68834      0              0              0              0            
     97620   491.5857       0              0              0              0            
     97640   489.42441      0              0              0              0            
     97660   359.5794       0              0              0              0            
     97680   370.54091      0              0              0              0            
     97700   377.70645      0              0              0              0            
     97720   318.58513      0              0              0              0            
     97740   263.28935      0              0              0              0            
     97760   340.10762      0              0              0              0            
     97780   281.14821      0              0              0              0            
     97800   266.94122      0              0              0              0            
     97820   229.70606      0              0              0              0            
     97840   325.12364      0              0              0              0            
     97860   193.59754      0              0              0              0            
     97880   277.47719      0              0              0              0            
     97900   237.63199      0              0              0              0            
     97920   293.39893      0              0              0              0            
     97940   176.00603      0              0              0              0            
     97960   319.89646      0              0              0              0            
     97980   319.09265      0              0              0              0            
     98000   365.96196      0              0              0              0            
     98020   320.46544      0              0              0              0            
     98040   505.50669      0              0              0              0            
     98060   459.01465      0              0              0              0            
     98080   533.0427       0              0              0              0            
     98100   591.91159      0              0              0              0            
     98120   591.61645      0              0              0              0            
     98140   417.40071      0              0              0              0            
     98160   421.15036      0              0              0              0            
     98180   435.86997      0              0              0              0            
     98200   306.01494      0              0              0              0            
     98220   249.75088      0              0              0              0            
     98240   237.1917       0              0              0              0            
     98260   269.81663      0              0              0              0            
     98280   174.89021      0              0              0              0            
     98300   244.63052      0              0              0              0            
     98320   219.85846      0              0              0              0            
     98340   241.05495      0              0              0              0            
     98360   180.07027      0              0              0              0            
     98380   332.90713      0              0              0              0            
     98400   244.36338      0              0              0              0            
     98420   282.78808      0              0              0              0            
     98440   266.51424      0              0              0              0            
     98460   402.33515      0              0              0              0            
     98480   288.32049      0              0              0              0            
     98500   387.94718      0              0              0              0            
     98520   384.73256      0              0              0              0            
     98540   446.30091      0              0              0              0            
     98560   356.44396      0              0              0              0            
     98580   488.21518      0              0              0              0            
     98600   420.72082      0              0              0              0            
     98620   367.25967      0              0              0              0            
     98640   310.77232      0              0              0              0            
     98660   302.34859      0              0              0              0            
     98680   243.56364      0              0              0              0            
     98700   160.7546       0              0              0              0            
     98720   200.81427      0              0              0              0            
     98740   166.20911      0              0              0              0            
     98760   157.3763       0              0              0              0            
     98780   156.08701      0              0              0              0            
     98800   199.71122      0              0              0              0            
     98820   145.7501       0              0              0              0            
     98840   184.70887      0              0              0              0            
     98860   186.2819       0              0              0              0            
     98880   289.42267      0              0              0              0            
     98900   195.70021      0              0              0              0            
     98920   348.51393      0              0              0              0            
     98940   306.10818      0              0              0              0            
     98960   409.11762      0              0              0              0            
     98980   299.24278      0              0              0              0            
     99000   450.24324      0              0              0              0            
     99020   368.2641       0              0              0              0            
     99040   371.6691       0              0              0              0            
     99060   329.76682      0              0              0              0            
     99080   399.2714       0              0              0              0            
     99100   301.66254      0              0              0              0            
     99120   327.36406      0              0              0              0            
     99140   316.87118      0              0              0              0            
     99160   319.2589       0              0              0              0            
     99180   240.92426      0              0              0              0            
     99200   272.57754      0              0              0              0            
     99220   294.14577      0              0              0              0            
     99240   217.85493      0              0              0              0            
     99260   238.67391      0              0              0              0            
     99280   241.12337      0              0              0              0            
     99300   292.81596      0              0              0              0            
     99320   199.06951      0              0              0              0            
     99340   311.27079      0              0              0              0            
     99360   289.31501      0              0              0              0            
     99380   331.6584       0              0              0              0            
     99400   312.50129      0              0              0              0            
     99420   526.18369      0              0              0              0            
     99440   398.05902      0              0              0              0            
     99460   524.51202      0              0              0              0            
     99480   472.12002      0              0              0              0            
     99500   614.43481      0              0              0              0            
     99520   364.36226      0              0              0              0            
     99540   443.80135      0              0              0              0            
     99560   364.94961      0              0              0              0            
     99580   336.02666      0              0              0              0            
     99600   213.6189       0              0              0              0            
     99620   284.73912      0              0              0              0            
     99640   228.22492      0              0              0              0            
     99660   182.47321      0              0              0              0            
     99680   210.66838      0              0              0              0            
     99700   254.36552      0              0              0              0            
     99720   208.02273      0              0              0              0            
     99740   183.46622      0              0              0              0            
     99760   263.08893      0              0              0              0            
     99780   242.03267      0              0              0              0            
     99800   261.91884      0              0              0              0            
     99820   278.35619      0              0              0              0            
     99840   391.4157       0              0              0              0            
     99860   281.65542      0              0              0              0            
     99880   451.88618      0              0              0              0            
     99900   476.81957      0              0              0              0            
     99920   570.68072      0              0              0              0            
     99940   370.9793       0              0              0              0            
     99960   577.34829      0              0              0              0            
     99980   438.81642      0              0              0              0            
    100000   407.68627      0              0              0              0            
    100020   242.55131      0              0              0              0            
    100038   277.4862       0              0              0              0            
Loop time of 3.68318 on 1 procs for 100000 steps with 6 atoms

Performance: 2345.802 ns/day, 0.010 hours/ns, 27150.485 timesteps/s, 162.903 katom-step/s
49.1% CPU use with 1 MPI tasks x 1 OpenMP threads

MPI task timing breakdown:
Section |  min time  |  avg time  |  max time  |%varavg| %total
---------------------------------------------------------------
Pair    | 0.053559   | 0.053559   | 0.053559   |   0.0 |  1.45
Bond    | 0.13122    | 0.13122    | 0.13122    |   0.0 |  3.56
Neigh   | 0.06168    | 0.06168    | 0.06168    |   0.0 |  1.67
Comm    | 0.055385   | 0.055385   | 0.055385   |   0.0 |  1.50
Output  | 0.39557    | 0.39557    | 0.39557    |   0.0 | 10.74
Modify  | 2.8839     | 2.8839     | 2.8839     |   0.0 | 78.30
Other   |            | 0.1019     |            |       |  2.77

Nlocal:              6 ave           6 max           6 min
Histogram: 1 0 0 0 0 0 0 0 0 0
Nghost:              1 ave           1 max           1 min
Histogram: 1 0 0 0 0 0 0 0 0 0
Neighs:              6 ave           6 max           6 min
Histogram: 1 0 0 0 0 0 0 0 0 0
FullNghs:            0 ave           0 max           0 min
Histogram: 1 0 0 0 0 0 0 0 0 0

Total # of neighbors = 6
Ave neighs/atom = 1
Ave special neighs/atom = 4
Neighbor list builds = 806
Dangerous builds = 0

#####################################################
print "All done"
All done
Total wall time: 0:00:04
