read_data	InitialFile.txt
Reading data file ...
  orthogonal box = (0 0 0) to (158.5 158.5 158.5)
  1 by 1 by 1 MPI processor grid
WARNING: Atom style in data file atomic differs from currently defined atom style bond (src/src/read_data.cpp:621)
  reading atoms ...
  100 atoms
  scanning bonds ...
  1 = max bonds/atom
  reading bonds ...
  99 bonds
Finding 1-2 1-3 1-4 neighbors ...
  special bond factors lj:    0        0        0       
  special bond factors coul:  0        0        0       
     2 = max # of 1-2 neighbors
     2 = max # of 1-3 neighbors
     4 = max # of 1-4 neighbors
     6 = max # of special neighbors
  special bonds CPU = 0.000 seconds
  read_data CPU = 0.003 seconds

# Dreiding potential information
neighbor	2.0 bin
neigh_modify every 1 delay 0 check yes

bond_style      harmonic
bond_coeff	1 350 1
bond_coeff	2 700 0.5
special_bonds lj/coul 0.0 0.0 0.5
Finding 1-2 1-3 1-4 neighbors ...
  special bond factors lj:    0        0        0.5     
  special bond factors coul:  0        0        0.5     
     2 = max # of 1-2 neighbors
     2 = max # of 1-3 neighbors
     4 = max # of 1-4 neighbors
     6 = max # of special neighbors
  special bonds CPU = 0.000 seconds


pair_style	lj/cut 10.5
pair_coeff	* * 0.5 1.0 10.5
pair_coeff	3 3 1 0.5 10.5

compute csym all centro/atom fcc
compute peratom all pe/atom


#####################################################
# Equilibration (Brownian dynamics at 300 K)

velocity 	all create 300.0 1231
fix		1 all nve/limit 0.05
fix 2 all brownian 30.0 12908410 gamma_t 3.0 rng gaussian # Compute a correct 300K simulation, check the value for gamma_t
thermo_style	custom step temp
thermo          10000
timestep	1
run		100000
Generated 0 of 3 mixed pair_coeff terms from geometric mixing rule
WARNING: One or more atoms are time integrated more than once (src/src/modify.cpp:289)
Neighbor list info ...
  update: every = 1 steps, delay = 0 steps, check = yes
  max neighbors/atom: 2000, page size: 100000
  master list distance cutoff = 12.5
  ghost atom cutoff = 12.5
  binsize = 6.25, bins = 26 26 26
  2 neighbor lists, perpetual/occasional/extra = 1 1 0
  (1) pair lj/cut, perpetual
      attributes: half, newton on
      pair build: half/bin/newton
      stencil: half/bin/3d
      bin: standard
  (2) compute centro/atom, occasional
      attributes: full, newton on
      pair build: full/bin
      stencil: full/bin/3d
      bin: standard
Per MPI rank memory allocation (min/avg/max) = 5.371 | 5.371 | 5.371 Mbytes
   Step          Temp     
         0   300          
     10000   294.33268    
     20000   268.46504    
     30000   322.62857    
     40000   271.67891    
     50000   286.89318    
     60000   288.13737    
     70000   321.99628    
     80000   276.12862    
     90000   334.20518    
    100000   329.52006    
Loop time of 2.04141 on 1 procs for 100000 steps with 100 atoms

Performance: 4232.376 ns/day, 0.006 hours/ns, 48985.830 timesteps/s, 4.899 Matom-step/s
96.4% CPU use with 1 MPI tasks x no OpenMP threads

MPI task timing breakdown:
Section |  min time  |  avg time  |  max time  |%varavg| %total
---------------------------------------------------------------
Pair    | 1.0597     | 1.0597     | 1.0597     |   0.0 | 51.91
Bond    | 0.11698    | 0.11698    | 0.11698    |   0.0 |  5.73
Neigh   | 0.0051508  | 0.0051508  | 0.0051508  |   0.0 |  0.25
Comm    | 0.014617   | 0.014617   | 0.014617   |   0.0 |  0.72
Output  | 0.00021352 | 0.00021352 | 0.00021352 |   0.0 |  0.01
Modify  | 0.78677    | 0.78677    | 0.78677    |   0.0 | 38.54
Other   |            | 0.05801    |            |       |  2.84

Nlocal:            100 ave         100 max         100 min
Histogram: 1 0 0 0 0 0 0 0 0 0
Nghost:              0 ave           0 max           0 min
Histogram: 1 0 0 0 0 0 0 0 0 0
Neighs:           1083 ave        1083 max        1083 min
Histogram: 1 0 0 0 0 0 0 0 0 0
FullNghs:            0 ave           0 max           0 min
Histogram: 1 0 0 0 0 0 0 0 0 0

Total # of neighbors = 1083
Ave neighs/atom = 10.83
Ave special neighs/atom = 5.88
Neighbor list builds = 112
Dangerous builds = 0
unfix 1
unfix 2

#####################################################
# Define Settings
compute eng all pe/atom
#compute eatoms all reduce sum c_eng

#####################################################
# Minimization

dump mydmp all atom 100 dump.lammpstrj

reset_timestep 0
fix 1 all nvt temp 300.0 300.0 100.0
thermo 20
#thermo_style custom step pe lx ly lz press pxx pyy pzz c_eatoms
min_style cg
minimize 1e-25 1e-25 500000 1000000
Generated 0 of 3 mixed pair_coeff terms from geometric mixing rule
Per MPI rank memory allocation (min/avg/max) = 6.496 | 6.496 | 6.496 Mbytes
   Step          Temp     
         0   329.52006    
        20   329.52006    
        40   329.52006    
        60   329.52006    
        80   329.52006    
       100   329.52006    
       120   329.52006    
       140   329.52006    
       160   329.52006    
       180   329.52006    
       200   329.52006    
       220   329.52006    
       240   329.52006    
       260   329.52006    
       280   329.52006    
       300   329.52006    
       320   329.52006    
       340   329.52006    
       360   329.52006    
       380   329.52006    
       400   329.52006    
       420   329.52006    
       440   329.52006    
       460   329.52006    
       480   329.52006    
       500   329.52006    
       520   329.52006    
       540   329.52006    
       560   329.52006    
       580   329.52006    
       600   329.52006    
       620   329.52006    
       640   329.52006    
       660   329.52006    
       680   329.52006    
       700   329.52006    
       720   329.52006    
       740   329.52006    
       760   329.52006    
       780   329.52006    
       800   329.52006    
       820   329.52006    
       840   329.52006    
       860   329.52006    
       880   329.52006    
       900   329.52006    
       920   329.52006    
       940   329.52006    
       960   329.52006    
       980   329.52006    
      1000   329.52006    
      1020   329.52006    
      1040   329.52006    
      1060   329.52006    
      1080   329.52006    
      1100   329.52006    
      1120   329.52006    
      1140   329.52006    
      1160   329.52006    
      1180   329.52006    
      1200   329.52006    
      1220   329.52006    
      1240   329.52006    
      1260   329.52006    
      1280   329.52006    
      1300   329.52006    
      1320   329.52006    
      1340   329.52006    
      1360   329.52006    
      1380   329.52006    
      1400   329.52006    
      1420   329.52006    
      1440   329.52006    
      1460   329.52006    
      1480   329.52006    
      1500   329.52006    
      1520   329.52006    
      1540   329.52006    
      1560   329.52006    
      1580   329.52006    
      1600   329.52006    
      1620   329.52006    
      1640   329.52006    
      1660   329.52006    
      1680   329.52006    
      1700   329.52006    
      1720   329.52006    
      1740   329.52006    
      1760   329.52006    
      1780   329.52006    
      1800   329.52006    
      1820   329.52006    
      1840   329.52006    
      1860   329.52006    
      1880   329.52006    
      1900   329.52006    
      1920   329.52006    
      1940   329.52006    
      1960   329.52006    
      1980   329.52006    
      2000   329.52006    
      2020   329.52006    
      2040   329.52006    
      2060   329.52006    
      2080   329.52006    
      2100   329.52006    
      2120   329.52006    
      2140   329.52006    
      2160   329.52006    
      2180   329.52006    
      2200   329.52006    
      2220   329.52006    
      2240   329.52006    
      2260   329.52006    
      2280   329.52006    
      2300   329.52006    
      2320   329.52006    
      2340   329.52006    
      2360   329.52006    
      2380   329.52006    
      2400   329.52006    
      2420   329.52006    
      2440   329.52006    
      2460   329.52006    
      2480   329.52006    
      2500   329.52006    
      2520   329.52006    
      2540   329.52006    
      2560   329.52006    
      2580   329.52006    
      2600   329.52006    
      2620   329.52006    
      2640   329.52006    
      2660   329.52006    
      2680   329.52006    
      2700   329.52006    
      2720   329.52006    
      2740   329.52006    
      2760   329.52006    
      2780   329.52006    
      2800   329.52006    
      2820   329.52006    
      2840   329.52006    
      2860   329.52006    
      2880   329.52006    
      2900   329.52006    
      2920   329.52006    
      2940   329.52006    
      2960   329.52006    
      2980   329.52006    
      3000   329.52006    
      3020   329.52006    
      3040   329.52006    
      3060   329.52006    
      3080   329.52006    
      3100   329.52006    
      3120   329.52006    
      3140   329.52006    
      3160   329.52006    
      3180   329.52006    
      3200   329.52006    
      3220   329.52006    
      3240   329.52006    
      3260   329.52006    
      3280   329.52006    
      3300   329.52006    
      3320   329.52006    
      3340   329.52006    
      3360   329.52006    
      3380   329.52006    
      3400   329.52006    
      3420   329.52006    
      3440   329.52006    
      3460   329.52006    
      3480   329.52006    
      3500   329.52006    
      3520   329.52006    
      3540   329.52006    
      3560   329.52006    
      3580   329.52006    
      3600   329.52006    
      3620   329.52006    
      3640   329.52006    
      3660   329.52006    
      3680   329.52006    
      3700   329.52006    
      3720   329.52006    
      3740   329.52006    
      3760   329.52006    
      3780   329.52006    
      3800   329.52006    
      3820   329.52006    
      3840   329.52006    
      3860   329.52006    
      3880   329.52006    
      3900   329.52006    
      3920   329.52006    
      3940   329.52006    
      3960   329.52006    
      3980   329.52006    
      4000   329.52006    
      4020   329.52006    
      4040   329.52006    
      4060   329.52006    
      4080   329.52006    
      4100   329.52006    
      4120   329.52006    
      4140   329.52006    
      4160   329.52006    
      4180   329.52006    
      4200   329.52006    
      4220   329.52006    
      4240   329.52006    
      4260   329.52006    
      4280   329.52006    
      4300   329.52006    
      4320   329.52006    
      4340   329.52006    
      4360   329.52006    
      4380   329.52006    
      4400   329.52006    
      4420   329.52006    
      4440   329.52006    
      4460   329.52006    
      4480   329.52006    
      4500   329.52006    
      4520   329.52006    
      4540   329.52006    
      4560   329.52006    
      4580   329.52006    
      4600   329.52006    
      4620   329.52006    
      4640   329.52006    
      4660   329.52006    
      4680   329.52006    
      4700   329.52006    
      4720   329.52006    
      4740   329.52006    
      4760   329.52006    
      4780   329.52006    
      4800   329.52006    
      4820   329.52006    
      4840   329.52006    
      4860   329.52006    
      4880   329.52006    
      4900   329.52006    
      4920   329.52006    
      4940   329.52006    
      4960   329.52006    
      4980   329.52006    
      5000   329.52006    
      5020   329.52006    
      5040   329.52006    
      5060   329.52006    
      5080   329.52006    
      5100   329.52006    
      5120   329.52006    
      5140   329.52006    
      5160   329.52006    
      5180   329.52006    
      5200   329.52006    
      5220   329.52006    
      5240   329.52006    
      5260   329.52006    
      5280   329.52006    
      5300   329.52006    
      5320   329.52006    
      5340   329.52006    
      5360   329.52006    
      5380   329.52006    
      5400   329.52006    
      5420   329.52006    
      5440   329.52006    
      5460   329.52006    
      5480   329.52006    
      5500   329.52006    
      5520   329.52006    
      5540   329.52006    
      5560   329.52006    
      5580   329.52006    
      5600   329.52006    
      5620   329.52006    
      5640   329.52006    
      5660   329.52006    
      5680   329.52006    
      5700   329.52006    
      5720   329.52006    
      5740   329.52006    
      5760   329.52006    
      5780   329.52006    
      5800   329.52006    
      5820   329.52006    
      5840   329.52006    
      5860   329.52006    
      5880   329.52006    
      5900   329.52006    
      5920   329.52006    
      5940   329.52006    
      5960   329.52006    
      5980   329.52006    
      6000   329.52006    
      6020   329.52006    
      6040   329.52006    
      6060   329.52006    
      6080   329.52006    
      6100   329.52006    
      6120   329.52006    
      6140   329.52006    
      6160   329.52006    
      6180   329.52006    
      6200   329.52006    
      6220   329.52006    
      6240   329.52006    
      6260   329.52006    
      6280   329.52006    
      6300   329.52006    
      6320   329.52006    
      6340   329.52006    
      6360   329.52006    
      6380   329.52006    
      6400   329.52006    
      6420   329.52006    
      6440   329.52006    
      6460   329.52006    
      6480   329.52006    
      6500   329.52006    
      6520   329.52006    
      6540   329.52006    
      6560   329.52006    
      6580   329.52006    
      6600   329.52006    
      6620   329.52006    
      6640   329.52006    
      6660   329.52006    
      6680   329.52006    
      6700   329.52006    
      6720   329.52006    
      6740   329.52006    
      6760   329.52006    
      6780   329.52006    
      6800   329.52006    
      6820   329.52006    
      6840   329.52006    
      6860   329.52006    
      6880   329.52006    
      6900   329.52006    
      6920   329.52006    
      6940   329.52006    
      6960   329.52006    
      6980   329.52006    
      7000   329.52006    
      7020   329.52006    
      7040   329.52006    
      7060   329.52006    
      7080   329.52006    
      7100   329.52006    
      7120   329.52006    
      7140   329.52006    
      7160   329.52006    
      7180   329.52006    
      7200   329.52006    
      7220   329.52006    
      7240   329.52006    
      7260   329.52006    
      7280   329.52006    
      7300   329.52006    
      7320   329.52006    
      7340   329.52006    
      7360   329.52006    
      7380   329.52006    
      7400   329.52006    
      7420   329.52006    
      7440   329.52006    
      7460   329.52006    
      7480   329.52006    
      7500   329.52006    
      7520   329.52006    
      7540   329.52006    
      7560   329.52006    
      7580   329.52006    
      7600   329.52006    
      7620   329.52006    
      7640   329.52006    
      7660   329.52006    
      7680   329.52006    
      7700   329.52006    
      7720   329.52006    
      7740   329.52006    
      7760   329.52006    
      7780   329.52006    
      7800   329.52006    
      7820   329.52006    
      7840   329.52006    
      7860   329.52006    
      7880   329.52006    
      7900   329.52006    
      7920   329.52006    
      7940   329.52006    
      7960   329.52006    
      7980   329.52006    
      8000   329.52006    
      8020   329.52006    
      8040   329.52006    
      8060   329.52006    
      8080   329.52006    
      8100   329.52006    
      8120   329.52006    
      8140   329.52006    
      8160   329.52006    
      8180   329.52006    
      8200   329.52006    
      8220   329.52006    
      8240   329.52006    
      8260   329.52006    
      8280   329.52006    
      8300   329.52006    
      8320   329.52006    
      8340   329.52006    
      8360   329.52006    
      8380   329.52006    
      8400   329.52006    
      8420   329.52006    
      8440   329.52006    
      8460   329.52006    
      8480   329.52006    
      8500   329.52006    
      8520   329.52006    
      8540   329.52006    
      8560   329.52006    
      8580   329.52006    
      8600   329.52006    
      8620   329.52006    
      8640   329.52006    
      8660   329.52006    
      8680   329.52006    
      8700   329.52006    
      8720   329.52006    
      8740   329.52006    
      8760   329.52006    
      8780   329.52006    
      8800   329.52006    
      8820   329.52006    
      8840   329.52006    
      8860   329.52006    
      8880   329.52006    
      8900   329.52006    
      8920   329.52006    
      8940   329.52006    
      8960   329.52006    
      8980   329.52006    
      9000   329.52006    
      9020   329.52006    
      9040   329.52006    
      9060   329.52006    
      9080   329.52006    
      9100   329.52006    
      9120   329.52006    
      9140   329.52006    
      9160   329.52006    
      9180   329.52006    
      9200   329.52006    
      9220   329.52006    
      9240   329.52006    
      9260   329.52006    
      9280   329.52006    
      9300   329.52006    
      9320   329.52006    
      9340   329.52006    
      9360   329.52006    
      9380   329.52006    
      9400   329.52006    
      9420   329.52006    
      9440   329.52006    
      9460   329.52006    
      9480   329.52006    
      9500   329.52006    
      9520   329.52006    
      9540   329.52006    
      9560   329.52006    
      9580   329.52006    
      9600   329.52006    
      9620   329.52006    
      9640   329.52006    
      9660   329.52006    
      9680   329.52006    
      9700   329.52006    
      9720   329.52006    
      9740   329.52006    
      9760   329.52006    
      9780   329.52006    
      9800   329.52006    
      9820   329.52006    
      9840   329.52006    
      9860   329.52006    
      9880   329.52006    
      9900   329.52006    
      9920   329.52006    
      9940   329.52006    
      9960   329.52006    
      9980   329.52006    
     10000   329.52006    
     10020   329.52006    
     10040   329.52006    
     10060   329.52006    
     10080   329.52006    
     10100   329.52006    
     10120   329.52006    
     10140   329.52006    
     10160   329.52006    
     10180   329.52006    
     10200   329.52006    
     10220   329.52006    
     10240   329.52006    
     10260   329.52006    
     10280   329.52006    
     10300   329.52006    
     10320   329.52006    
     10340   329.52006    
     10360   329.52006    
     10380   329.52006    
     10400   329.52006    
     10420   329.52006    
     10440   329.52006    
     10460   329.52006    
     10480   329.52006    
     10500   329.52006    
     10520   329.52006    
     10540   329.52006    
     10560   329.52006    
     10580   329.52006    
     10600   329.52006    
     10620   329.52006    
     10640   329.52006    
     10660   329.52006    
     10680   329.52006    
     10700   329.52006    
     10720   329.52006    
     10740   329.52006    
     10760   329.52006    
     10780   329.52006    
     10800   329.52006    
     10820   329.52006    
     10840   329.52006    
     10860   329.52006    
     10880   329.52006    
     10900   329.52006    
     10920   329.52006    
     10940   329.52006    
     10960   329.52006    
     10980   329.52006    
     11000   329.52006    
     11020   329.52006    
     11040   329.52006    
     11060   329.52006    
     11080   329.52006    
     11100   329.52006    
     11120   329.52006    
     11140   329.52006    
     11160   329.52006    
     11180   329.52006    
     11200   329.52006    
     11220   329.52006    
     11240   329.52006    
     11260   329.52006    
     11280   329.52006    
     11300   329.52006    
     11320   329.52006    
     11340   329.52006    
     11360   329.52006    
     11380   329.52006    
     11400   329.52006    
     11420   329.52006    
     11440   329.52006    
     11460   329.52006    
     11480   329.52006    
     11500   329.52006    
     11520   329.52006    
     11540   329.52006    
     11560   329.52006    
     11580   329.52006    
     11600   329.52006    
     11620   329.52006    
     11640   329.52006    
     11660   329.52006    
     11680   329.52006    
     11700   329.52006    
     11720   329.52006    
     11740   329.52006    
     11760   329.52006    
     11780   329.52006    
     11800   329.52006    
     11820   329.52006    
     11840   329.52006    
     11860   329.52006    
     11880   329.52006    
     11900   329.52006    
     11920   329.52006    
     11940   329.52006    
     11960   329.52006    
     11980   329.52006    
     12000   329.52006    
     12020   329.52006    
     12040   329.52006    
     12060   329.52006    
     12080   329.52006    
     12100   329.52006    
     12120   329.52006    
     12140   329.52006    
     12160   329.52006    
     12180   329.52006    
     12200   329.52006    
     12220   329.52006    
     12240   329.52006    
     12260   329.52006    
     12280   329.52006    
     12300   329.52006    
     12320   329.52006    
     12340   329.52006    
     12360   329.52006    
     12380   329.52006    
     12400   329.52006    
     12420   329.52006    
     12440   329.52006    
     12460   329.52006    
     12480   329.52006    
     12500   329.52006    
     12520   329.52006    
     12540   329.52006    
     12560   329.52006    
     12580   329.52006    
     12600   329.52006    
     12620   329.52006    
     12640   329.52006    
     12660   329.52006    
     12680   329.52006    
     12700   329.52006    
     12720   329.52006    
     12740   329.52006    
     12760   329.52006    
     12780   329.52006    
     12800   329.52006    
     12820   329.52006    
     12840   329.52006    
     12860   329.52006    
     12880   329.52006    
     12900   329.52006    
     12920   329.52006    
     12940   329.52006    
     12960   329.52006    
     12980   329.52006    
     13000   329.52006    
     13020   329.52006    
     13040   329.52006    
     13060   329.52006    
     13080   329.52006    
     13100   329.52006    
     13120   329.52006    
     13140   329.52006    
     13160   329.52006    
     13180   329.52006    
     13200   329.52006    
     13220   329.52006    
     13240   329.52006    
     13260   329.52006    
     13280   329.52006    
     13300   329.52006    
     13320   329.52006    
     13340   329.52006    
     13360   329.52006    
     13380   329.52006    
     13400   329.52006    
     13420   329.52006    
     13440   329.52006    
     13460   329.52006    
     13480   329.52006    
     13500   329.52006    
     13520   329.52006    
     13540   329.52006    
     13560   329.52006    
     13580   329.52006    
     13600   329.52006    
     13620   329.52006    
     13640   329.52006    
     13660   329.52006    
     13680   329.52006    
     13700   329.52006    
     13720   329.52006    
     13740   329.52006    
     13760   329.52006    
     13780   329.52006    
     13800   329.52006    
     13820   329.52006    
     13840   329.52006    
     13860   329.52006    
     13880   329.52006    
     13900   329.52006    
     13920   329.52006    
     13940   329.52006    
     13960   329.52006    
     13980   329.52006    
     14000   329.52006    
     14020   329.52006    
     14040   329.52006    
     14060   329.52006    
     14080   329.52006    
     14100   329.52006    
     14120   329.52006    
     14140   329.52006    
     14160   329.52006    
     14180   329.52006    
     14200   329.52006    
     14220   329.52006    
     14240   329.52006    
     14260   329.52006    
     14280   329.52006    
     14300   329.52006    
     14320   329.52006    
     14340   329.52006    
     14360   329.52006    
     14380   329.52006    
     14400   329.52006    
     14420   329.52006    
     14440   329.52006    
     14460   329.52006    
     14480   329.52006    
     14500   329.52006    
     14520   329.52006    
     14540   329.52006    
     14560   329.52006    
     14580   329.52006    
     14600   329.52006    
     14620   329.52006    
     14640   329.52006    
     14660   329.52006    
     14680   329.52006    
     14700   329.52006    
     14720   329.52006    
     14740   329.52006    
     14760   329.52006    
     14780   329.52006    
     14800   329.52006    
     14820   329.52006    
     14840   329.52006    
     14860   329.52006    
     14880   329.52006    
     14900   329.52006    
     14920   329.52006    
     14940   329.52006    
     14960   329.52006    
     14980   329.52006    
     15000   329.52006    
     15020   329.52006    
     15040   329.52006    
     15060   329.52006    
     15080   329.52006    
     15100   329.52006    
     15120   329.52006    
     15140   329.52006    
     15160   329.52006    
     15180   329.52006    
     15200   329.52006    
     15220   329.52006    
     15240   329.52006    
     15260   329.52006    
     15280   329.52006    
     15300   329.52006    
     15320   329.52006    
     15340   329.52006    
     15360   329.52006    
     15380   329.52006    
     15400   329.52006    
     15420   329.52006    
     15440   329.52006    
     15460   329.52006    
     15480   329.52006    
     15500   329.52006    
     15520   329.52006    
     15540   329.52006    
     15560   329.52006    
     15580   329.52006    
     15600   329.52006    
     15620   329.52006    
     15640   329.52006    
     15660   329.52006    
     15680   329.52006    
     15700   329.52006    
     15720   329.52006    
     15740   329.52006    
     15760   329.52006    
     15780   329.52006    
     15800   329.52006    
     15820   329.52006    
     15840   329.52006    
     15860   329.52006    
     15880   329.52006    
     15900   329.52006    
     15920   329.52006    
     15940   329.52006    
     15960   329.52006    
     15980   329.52006    
     16000   329.52006    
     16020   329.52006    
     16040   329.52006    
     16060   329.52006    
     16080   329.52006    
     16100   329.52006    
     16120   329.52006    
     16140   329.52006    
     16160   329.52006    
     16180   329.52006    
     16200   329.52006    
     16220   329.52006    
     16240   329.52006    
     16260   329.52006    
     16280   329.52006    
     16300   329.52006    
     16320   329.52006    
     16340   329.52006    
     16360   329.52006    
     16380   329.52006    
     16400   329.52006    
     16420   329.52006    
     16440   329.52006    
     16460   329.52006    
     16480   329.52006    
     16500   329.52006    
     16520   329.52006    
     16540   329.52006    
     16560   329.52006    
     16580   329.52006    
     16600   329.52006    
     16620   329.52006    
     16640   329.52006    
     16660   329.52006    
     16680   329.52006    
     16700   329.52006    
     16720   329.52006    
     16740   329.52006    
     16760   329.52006    
     16780   329.52006    
     16800   329.52006    
     16820   329.52006    
     16840   329.52006    
     16860   329.52006    
     16880   329.52006    
     16900   329.52006    
     16920   329.52006    
     16940   329.52006    
     16960   329.52006    
     16980   329.52006    
     17000   329.52006    
     17020   329.52006    
     17040   329.52006    
     17060   329.52006    
     17080   329.52006    
     17100   329.52006    
     17120   329.52006    
     17140   329.52006    
     17160   329.52006    
     17180   329.52006    
     17200   329.52006    
     17220   329.52006    
     17240   329.52006    
     17260   329.52006    
     17280   329.52006    
     17300   329.52006    
     17320   329.52006    
     17340   329.52006    
     17360   329.52006    
     17380   329.52006    
     17400   329.52006    
     17420   329.52006    
     17440   329.52006    
     17460   329.52006    
     17480   329.52006    
     17500   329.52006    
     17520   329.52006    
     17540   329.52006    
     17560   329.52006    
     17580   329.52006    
     17600   329.52006    
     17620   329.52006    
     17640   329.52006    
     17660   329.52006    
     17680   329.52006    
     17700   329.52006    
     17720   329.52006    
     17740   329.52006    
     17760   329.52006    
     17780   329.52006    
     17800   329.52006    
     17820   329.52006    
     17840   329.52006    
     17860   329.52006    
     17880   329.52006    
     17900   329.52006    
     17920   329.52006    
     17940   329.52006    
     17960   329.52006    
     17980   329.52006    
     18000   329.52006    
     18020   329.52006    
     18040   329.52006    
     18060   329.52006    
     18080   329.52006    
     18100   329.52006    
     18120   329.52006    
     18140   329.52006    
     18160   329.52006    
     18180   329.52006    
     18200   329.52006    
     18220   329.52006    
     18240   329.52006    
     18260   329.52006    
     18280   329.52006    
     18300   329.52006    
     18320   329.52006    
     18340   329.52006    
     18360   329.52006    
     18380   329.52006    
     18400   329.52006    
     18420   329.52006    
     18440   329.52006    
     18460   329.52006    
     18480   329.52006    
     18500   329.52006    
     18520   329.52006    
     18540   329.52006    
     18560   329.52006    
     18580   329.52006    
     18600   329.52006    
     18620   329.52006    
     18640   329.52006    
     18660   329.52006    
     18680   329.52006    
     18700   329.52006    
     18720   329.52006    
     18740   329.52006    
     18760   329.52006    
     18780   329.52006    
     18800   329.52006    
     18820   329.52006    
     18840   329.52006    
     18860   329.52006    
     18880   329.52006    
     18900   329.52006    
     18920   329.52006    
     18940   329.52006    
     18960   329.52006    
     18980   329.52006    
     19000   329.52006    
     19020   329.52006    
     19040   329.52006    
     19060   329.52006    
     19080   329.52006    
     19100   329.52006    
     19120   329.52006    
     19140   329.52006    
     19160   329.52006    
     19180   329.52006    
     19200   329.52006    
     19220   329.52006    
     19240   329.52006    
     19260   329.52006    
     19280   329.52006    
     19300   329.52006    
     19320   329.52006    
     19340   329.52006    
     19360   329.52006    
     19380   329.52006    
     19400   329.52006    
     19420   329.52006    
     19440   329.52006    
     19460   329.52006    
     19480   329.52006    
     19500   329.52006    
     19520   329.52006    
     19540   329.52006    
     19560   329.52006    
     19580   329.52006    
     19600   329.52006    
     19620   329.52006    
     19640   329.52006    
     19660   329.52006    
     19680   329.52006    
     19700   329.52006    
     19720   329.52006    
     19740   329.52006    
     19760   329.52006    
     19780   329.52006    
     19800   329.52006    
     19820   329.52006    
     19840   329.52006    
     19860   329.52006    
     19880   329.52006    
     19900   329.52006    
     19920   329.52006    
     19940   329.52006    
     19960   329.52006    
     19980   329.52006    
     20000   329.52006    
     20020   329.52006    
     20040   329.52006    
     20060   329.52006    
     20080   329.52006    
     20100   329.52006    
     20120   329.52006    
     20140   329.52006    
     20160   329.52006    
     20180   329.52006    
     20200   329.52006    
     20210   329.52006    
Loop time of 2.92931 on 1 procs for 20210 steps with 100 atoms

82.5% CPU use with 1 MPI tasks x no OpenMP threads

Minimization stats:
  Stopping criterion = energy tolerance
  Energy initial, next-to-last, final = 
     -2.44899039163747  -333.167038528031  -333.167038528031
  Force two-norm initial, final = 151.79915 4.6926843e-05
  Force max component initial, final = 26.682841 1.4492046e-05
  Final line search alpha, max atom move = 1 1.4492046e-05
  Iterations, force evaluations = 20210 42607

MPI task timing breakdown:
Section |  min time  |  avg time  |  max time  |%varavg| %total
---------------------------------------------------------------
Pair    | 2.6758     | 2.6758     | 2.6758     |   0.0 | 91.35
Bond    | 0.074455   | 0.074455   | 0.074455   |   0.0 |  2.54
Neigh   | 0.0045844  | 0.0045844  | 0.0045844  |   0.0 |  0.16
Comm    | 0.012281   | 0.012281   | 0.012281   |   0.0 |  0.42
Output  | 0.057068   | 0.057068   | 0.057068   |   0.0 |  1.95
Modify  | 0          | 0          | 0          |   0.0 |  0.00
Other   |            | 0.1051     |            |       |  3.59

Nlocal:            100 ave         100 max         100 min
Histogram: 1 0 0 0 0 0 0 0 0 0
Nghost:              0 ave           0 max           0 min
Histogram: 1 0 0 0 0 0 0 0 0 0
Neighs:           4753 ave        4753 max        4753 min
Histogram: 1 0 0 0 0 0 0 0 0 0
FullNghs:            0 ave           0 max           0 min
Histogram: 1 0 0 0 0 0 0 0 0 0

Total # of neighbors = 4753
Ave neighs/atom = 47.53
Ave special neighs/atom = 5.88
Neighbor list builds = 62
Dangerous builds = 0

unfix 1

molecule mol molTemplate.txt
Read molecule template mol:
  1 molecules
  0 fragments
  5 atoms with max type 3
  4 bonds with max type 2
  0 angles with max type 0
  0 dihedrals with max type 0
  0 impropers with max type 0
molecule mol2 molTemplate2.txt
Read molecule template mol2:
  1 molecules
  0 fragments
  5 atoms with max type 3
  4 bonds with max type 2
  0 angles with max type 0
  0 dihedrals with max type 0
  0 impropers with max type 0


#####################################################
# Do the reactions
fix 3 all bond/react stabilization yes statted_grp .03   react reac all 1 0 4 mol mol2 map.txt molecule intra
dynamic group bond_react_MASTER_group defined
dynamic group statted_grp_REACT defined

fix 1 statted_grp_REACT nvt temp 300 300 100

thermo_style custom step temp f_3[1]

run 100000

CITE-CITE-CITE-CITE-CITE-CITE-CITE-CITE-CITE-CITE-CITE-CITE-CITE

Your simulation uses code contributions which should be cited:

- fix bond/react: reacter.org doi:10.1016/j.polymer.2017.09.038, doi:10.1021/acs.macromol.0c02012

@Article{Gissinger17,
 author = {J. R. Gissinger and B. D. Jensen and K. E. Wise},
 title = {Modeling Chemical Reactions in Classical Molecular Dynamics Simulations},
 journal = {Polymer},
 year =    2017,
 volume =  128,
 pages =   {211--217}
}

@Article{Gissinger20,
 author = {J. R. Gissinger, B. D. Jensen, K. E. Wise},
 title = {{REACTER}: A Heuristic Method for Reactive Molecular Dynamics},
 journal = {Macromolecules},
 year =    2020,
 volume =  53,
 number =  22,
 pages =   {9953--9961}
}

CITE-CITE-CITE-CITE-CITE-CITE-CITE-CITE-CITE-CITE-CITE-CITE-CITE

Generated 0 of 3 mixed pair_coeff terms from geometric mixing rule
Neighbor list info ...
  update: every = 1 steps, delay = 0 steps, check = yes
  max neighbors/atom: 2000, page size: 100000
  master list distance cutoff = 12.5
  ghost atom cutoff = 12.5
  binsize = 6.25, bins = 26 26 26
  3 neighbor lists, perpetual/occasional/extra = 1 2 0
  (1) pair lj/cut, perpetual
      attributes: half, newton on
      pair build: half/bin/newton
      stencil: half/bin/3d
      bin: standard
  (2) compute centro/atom, occasional
      attributes: full, newton on
      pair build: full/bin
      stencil: full/bin/3d
      bin: standard
  (3) fix bond/react, occasional, copy from (1)
      attributes: half, newton on
      pair build: copy
      stencil: none
      bin: none
Per MPI rank memory allocation (min/avg/max) = 6.749 | 6.749 | 6.749 Mbytes
   Step          Temp          f_3[1]    
     20210   329.52006      0            
ERROR on proc 0: Bond atoms 73 74 missing on proc 0 at step 20212 (src/src/ntopo_bond_all.cpp:59)
Last command: run 100000
