read_data	InitialFile.txt
Reading data file ...
  orthogonal box = (0 0 0) to (158.5 158.5 158.5)
  1 by 1 by 1 MPI processor grid
WARNING: Atom style in data file atomic differs from currently defined atom style molecular (src/src/read_data.cpp:621)
  reading atoms ...
  4 atoms
  scanning bonds ...
  1 = max bonds/atom
  scanning angles ...
  1 = max angles/atom
  scanning dihedrals ...
  1 = max dihedrals/atom
  reading bonds ...
  3 bonds
  reading angles ...
  2 angles
  reading dihedrals ...
  1 dihedrals
Finding 1-2 1-3 1-4 neighbors ...
  special bond factors lj:    0        0        0       
  special bond factors coul:  0        0        0       
     2 = max # of 1-2 neighbors
     1 = max # of 1-3 neighbors
     2 = max # of 1-4 neighbors
     3 = max # of special neighbors
  special bonds CPU = 0.000 seconds
  read_data CPU = 0.003 seconds

# Dreiding potential information
neighbor	2.0 bin
neigh_modify every 1 delay 0 check yes

bond_style      harmonic
bond_coeff	1 350 1.53
bond_coeff	2 700 1.53
special_bonds lj/coul 0.0 0.0 0.5
Finding 1-2 1-3 1-4 neighbors ...
  special bond factors lj:    0        0        0.5     
  special bond factors coul:  0        0        0.5     
     2 = max # of 1-2 neighbors
     1 = max # of 1-3 neighbors
     2 = max # of 1-4 neighbors
     3 = max # of special neighbors
  special bonds CPU = 0.000 seconds


angle_style     harmonic
angle_coeff	1 60 109.5
angle_coeff	2 120 109.5

dihedral_style	multi/harmonic
dihedral_coeff	1 1.73 -4.49 0.776 6.99 0.0
dihedral_coeff	2 1.73 -4.49 0.776 6.99 0.0

pair_style	lj/cut 10.5
pair_coeff	* * 1.0 1.0 10.5
pair_coeff	3 3 2.0 0.5 10.5

compute csym all centro/atom fcc
compute peratom all pe/atom


#####################################################
# Equilibration (Brownian dynamics at 300 K)

velocity 	all create 300.0 1231
fix		1 all nve/limit 0.05
fix 2 all brownian 30.0 12908410 gamma_t 3.0 rng gaussian # Compute a correct 300K simulation, check the value for gamma_t
thermo_style	custom step temp
thermo          10000
timestep	1
run		100000
Generated 0 of 3 mixed pair_coeff terms from geometric mixing rule
WARNING: One or more atoms are time integrated more than once (src/src/modify.cpp:289)
Neighbor list info ...
  update: every = 1 steps, delay = 0 steps, check = yes
  max neighbors/atom: 2000, page size: 100000
  master list distance cutoff = 12.5
  ghost atom cutoff = 12.5
  binsize = 6.25, bins = 26 26 26
  2 neighbor lists, perpetual/occasional/extra = 1 1 0
  (1) pair lj/cut, perpetual
      attributes: half, newton on
      pair build: half/bin/newton
      stencil: half/bin/3d
      bin: standard
  (2) compute centro/atom, occasional
      attributes: full, newton on
      pair build: full/bin
      stencil: full/bin/3d
      bin: standard
Per MPI rank memory allocation (min/avg/max) = 7.931 | 7.931 | 7.931 Mbytes
   Step          Temp     
         0   300          
     10000   382.22649    
     20000   354.83348    
     30000   238.93088    
     40000   763.80509    
     50000   602.71732    
     60000   177.04023    
     70000   332.15365    
     80000   228.86235    
     90000   387.88565    
    100000   232.24961    
Loop time of 0.157134 on 1 procs for 100000 steps with 4 atoms

Performance: 54984.863 ns/day, 0.000 hours/ns, 636398.874 timesteps/s, 2.546 Matom-step/s
93.9% CPU use with 1 MPI tasks x no OpenMP threads

MPI task timing breakdown:
Section |  min time  |  avg time  |  max time  |%varavg| %total
---------------------------------------------------------------
Pair    | 0.011642   | 0.011642   | 0.011642   |   0.0 |  7.41
Bond    | 0.032392   | 0.032392   | 0.032392   |   0.0 | 20.61
Neigh   | 0.00037114 | 0.00037114 | 0.00037114 |   0.0 |  0.24
Comm    | 0.029443   | 0.029443   | 0.029443   |   0.0 | 18.74
Output  | 0.00022065 | 0.00022065 | 0.00022065 |   0.0 |  0.14
Modify  | 0.053195   | 0.053195   | 0.053195   |   0.0 | 33.85
Other   |            | 0.02987    |            |       | 19.01

Nlocal:              4 ave           4 max           4 min
Histogram: 1 0 0 0 0 0 0 0 0 0
Nghost:             28 ave          28 max          28 min
Histogram: 1 0 0 0 0 0 0 0 0 0
Neighs:              1 ave           1 max           1 min
Histogram: 1 0 0 0 0 0 0 0 0 0
FullNghs:            0 ave           0 max           0 min
Histogram: 1 0 0 0 0 0 0 0 0 0

Total # of neighbors = 1
Ave neighs/atom = 0.25
Ave special neighs/atom = 3
Neighbor list builds = 19
Dangerous builds = 0
unfix 1
unfix 2
write_restart 	restart.${simname}.dreiding1
write_restart 	restart.InitialFile.dreiding1
System init for write_restart ...
Generated 0 of 3 mixed pair_coeff terms from geometric mixing rule

#####################################################
# Define Settings
compute eng all pe/atom
compute eatoms all reduce sum c_eng

#####################################################
# Minimization

dump mydmp all atom 100 dump.lammpstrj

reset_timestep 0
fix 1 all nvt temp 300.0 300.0 100.0
thermo 20
thermo_style custom step pe lx ly lz press pxx pyy pzz c_eatoms
min_style cg
minimize 1e-25 1e-25 500000 1000000
Generated 0 of 3 mixed pair_coeff terms from geometric mixing rule
Per MPI rank memory allocation (min/avg/max) = 9.056 | 9.056 | 9.056 Mbytes
   Step         PotEng           Lx             Ly             Lz           Press           Pxx            Pyy            Pzz          c_eatoms   
         0   0.59467738     158.5          158.5          158.5          0.02461187    -0.1134872      0.18039273     0.0069300722   0.59467738   
        20   0.013897817    158.5          158.5          158.5          0.0022898521  -0.018479071    0.015002394    0.010346233    0.013897817  
        40   0.0054218172   158.5          158.5          158.5          0.023421621    0.029402516    0.01871413     0.022148218    0.0054218172 
        60   0.0054190992   158.5          158.5          158.5          0.023678911    0.030012342    0.01871727     0.022307122    0.0054190992 
        80   0.0054101719   158.5          158.5          158.5          0.022285173    0.028521022    0.016408989    0.021925507    0.0054101719 
       100   0.0053869948   158.5          158.5          158.5          0.023842864    0.030553024    0.018525857    0.022449712    0.0053869948 
       120   0.0053869948   158.5          158.5          158.5          0.023842709    0.030553453    0.018524846    0.022449828    0.0053869948 
       124   0.0053869948   158.5          158.5          158.5          0.023842709    0.030553453    0.018524846    0.022449828    0.0053869948 
Loop time of 0.000813728 on 1 procs for 124 steps with 4 atoms

87.3% CPU use with 1 MPI tasks x no OpenMP threads

Minimization stats:
  Stopping criterion = energy tolerance
  Energy initial, next-to-last, final = 
     0.594677381291793 0.00538699478381168 0.00538699478381168
  Force two-norm initial, final = 27.61823 2.4817327e-11
  Force max component initial, final = 18.536263 1.4430518e-11
  Final line search alpha, max atom move = 1 1.4430518e-11
  Iterations, force evaluations = 124 521

MPI task timing breakdown:
Section |  min time  |  avg time  |  max time  |%varavg| %total
---------------------------------------------------------------
Pair    | 6.5344e-05 | 6.5344e-05 | 6.5344e-05 |   0.0 |  8.03
Bond    | 0.00022784 | 0.00022784 | 0.00022784 |   0.0 | 28.00
Neigh   | 0          | 0          | 0          |   0.0 |  0.00
Comm    | 0.00015576 | 0.00015576 | 0.00015576 |   0.0 | 19.14
Output  | 9.8925e-05 | 9.8925e-05 | 9.8925e-05 |   0.0 | 12.16
Modify  | 0          | 0          | 0          |   0.0 |  0.00
Other   |            | 0.0002659  |            |       | 32.67

Nlocal:              4 ave           4 max           4 min
Histogram: 1 0 0 0 0 0 0 0 0 0
Nghost:             28 ave          28 max          28 min
Histogram: 1 0 0 0 0 0 0 0 0 0
Neighs:              1 ave           1 max           1 min
Histogram: 1 0 0 0 0 0 0 0 0 0
FullNghs:            0 ave           0 max           0 min
Histogram: 1 0 0 0 0 0 0 0 0 0

Total # of neighbors = 1
Ave neighs/atom = 0.25
Ave special neighs/atom = 3
Neighbor list builds = 0
Dangerous builds = 0

group type1_atoms type 1
1 atoms in group type1_atoms
group type2_atoms type 2
1 atoms in group type2_atoms
group type3_atoms type 3
2 atoms in group type3_atoms

molecule mol1closeTo3PRE mol1closeTo3PRE.txt
Read molecule template mol1closeTo3PRE:
  1 molecules
  0 fragments
  4 atoms with max type 3
  3 bonds with max type 1
  2 angles with max type 1
  1 dihedrals with max type 1
  0 impropers with max type 0
molecule mol1closeTo3POST mol1closeTo3POST.txt
Read molecule template mol1closeTo3POST:
  1 molecules
  0 fragments
  4 atoms with max type 3
  3 bonds with max type 1
  2 angles with max type 1
  1 dihedrals with max type 1
  0 impropers with max type 0
molecule mol3closeTo1POST mol3closeTo1POST.txt
Read molecule template mol3closeTo1POST:
  1 molecules
  0 fragments
  4 atoms with max type 2
  3 bonds with max type 1
  2 angles with max type 1
  1 dihedrals with max type 1
  0 impropers with max type 0
molecule mol2closeTo3PRE mol2closeTo3PRE.txt
Read molecule template mol2closeTo3PRE:
  1 molecules
  0 fragments
  4 atoms with max type 3
  3 bonds with max type 1
  2 angles with max type 1
  1 dihedrals with max type 1
  0 impropers with max type 0
molecule mol2closeTo3POST mol2closeTo3POST.txt
Read molecule template mol2closeTo3POST:
  1 molecules
  0 fragments
  4 atoms with max type 3
  3 bonds with max type 1
  2 angles with max type 1
  1 dihedrals with max type 1
  0 impropers with max type 0
molecule mol3closeTo2POST mol3closeTo2POST.txt
Read molecule template mol3closeTo2POST:
  1 molecules
  0 fragments
  4 atoms with max type 2
  3 bonds with max type 1
  2 angles with max type 1
  1 dihedrals with max type 1
  0 impropers with max type 0
molecule mol2closeTo1PRE mol2closeTo1PRE.txt
Read molecule template mol2closeTo1PRE:
  1 molecules
  0 fragments
  4 atoms with max type 3
  3 bonds with max type 1
  2 angles with max type 1
  1 dihedrals with max type 1
  0 impropers with max type 0
molecule mol2closeTo1POST mol2closeTo1POST.txt
Read molecule template mol2closeTo1POST:
  1 molecules
  0 fragments
  4 atoms with max type 3
  3 bonds with max type 1
  2 angles with max type 1
  1 dihedrals with max type 1
  0 impropers with max type 0

#####################################################
# Do the reactions
fix 3 all bond/react   react reac1to2 all 1 0 3 mol1closeTo3PRE mol1closeTo3POST map_1to2.txt molecule intra   react reac2to3 all 1 0 10 mol2closeTo3PRE mol2closeTo3POST map_2to3.txt    react reac3to2 all 1 0 10 mol2closeTo3PRE mol3closeTo2POST map_3to2.txt    react reac2to1 all 1 0 10 mol2closeTo1PRE mol2closeTo1POST map_2to1.txt
dynamic group bond_react_MASTER_group defined

run 100000

CITE-CITE-CITE-CITE-CITE-CITE-CITE-CITE-CITE-CITE-CITE-CITE-CITE

Your simulation uses code contributions which should be cited:

- fix bond/react: reacter.org doi:10.1016/j.polymer.2017.09.038, doi:10.1021/acs.macromol.0c02012

@Article{Gissinger17,
 author = {J. R. Gissinger and B. D. Jensen and K. E. Wise},
 title = {Modeling Chemical Reactions in Classical Molecular Dynamics Simulations},
 journal = {Polymer},
 year =    2017,
 volume =  128,
 pages =   {211--217}
}

@Article{Gissinger20,
 author = {J. R. Gissinger, B. D. Jensen, K. E. Wise},
 title = {{REACTER}: A Heuristic Method for Reactive Molecular Dynamics},
 journal = {Macromolecules},
 year =    2020,
 volume =  53,
 number =  22,
 pages =   {9953--9961}
}

CITE-CITE-CITE-CITE-CITE-CITE-CITE-CITE-CITE-CITE-CITE-CITE-CITE

Generated 0 of 3 mixed pair_coeff terms from geometric mixing rule
Neighbor list info ...
  update: every = 1 steps, delay = 0 steps, check = yes
  max neighbors/atom: 2000, page size: 100000
  master list distance cutoff = 12.5
  ghost atom cutoff = 12.5
  binsize = 6.25, bins = 26 26 26
  3 neighbor lists, perpetual/occasional/extra = 1 2 0
  (1) pair lj/cut, perpetual
      attributes: half, newton on
      pair build: half/bin/newton
      stencil: half/bin/3d
      bin: standard
  (2) compute centro/atom, occasional
      attributes: full, newton on
      pair build: full/bin
      stencil: full/bin/3d
      bin: standard
  (3) fix bond/react, occasional, copy from (1)
      attributes: half, newton on
      pair build: copy
      stencil: none
      bin: none
Per MPI rank memory allocation (min/avg/max) = 9.368 | 9.368 | 9.368 Mbytes
   Step         PotEng           Lx             Ly             Lz           Press           Pxx            Pyy            Pzz          c_eatoms   
       124   0.0053869948   158.5          158.5          158.5          0.023842709    0.030553453    0.018524846    0.022449828    0.0053869948 
       140   0.54474836     158.5          158.5          158.5          0.10991724    -0.06159081     0.38506242     0.006280116    0.54474836   
       160   0.54201232     158.5          158.5          158.5         -0.03045488    -0.041785901   -0.066565226    0.016986489    0.54201232   
       180   0.51233039     158.5          158.5          158.5         -0.049225179   -0.046006144   -0.10196052     0.00029112561  0.51233039   
       200   0.61960726     158.5          158.5          158.5         -0.19909126    -0.25435187    -0.33913688    -0.003785028    0.61960726   
       220   0.36049824     158.5          158.5          158.5          0.093808699    0.13876085     0.1082612      0.034404042    0.36049824   
       240   0.56391863     158.5          158.5          158.5          0.26070195     0.23952181     0.50777431     0.034809722    0.56391863   
       260   0.80437241     158.5          158.5          158.5         -0.12502522    -0.24096659    -0.14778108     0.013671995    0.80437241   
       280   1.0596164      158.5          158.5          158.5         -0.10631951     0.14023979    -0.49981433     0.040615995    1.0596164    
       300   0.38540031     158.5          158.5          158.5          0.1112925      0.26159869     0.011036361    0.061242449    0.38540031   
       320   1.6057602      158.5          158.5          158.5          0.18167419     0.046962822    0.48349364     0.014566124    1.6057602    
       340   0.29053869     158.5          158.5          158.5          0.26238449     0.32016031     0.34421594     0.12277722     0.29053869   
       360   1.1639296      158.5          158.5          158.5         -0.267172       0.03539449    -0.86892859     0.032018111    1.1639296    
       380   0.76691273     158.5          158.5          158.5         -0.019236094   -0.038155946   -0.088646076    0.069093741    0.76691273   
       400   0.93504067     158.5          158.5          158.5          0.36044019     0.25397999     0.64851188     0.17882871     0.93504067   
       420   0.86310493     158.5          158.5          158.5          0.071110024    0.19844493    -0.014137937    0.029023078    0.86310493   
       440   0.3649499      158.5          158.5          158.5         -0.0073878      0.00061609762 -0.11574332     0.09296382     0.3649499    
       460   0.49824525     158.5          158.5          158.5         -0.12264975    -0.081416575   -0.18635888    -0.10017379     0.49824525   
       480   0.33760329     158.5          158.5          158.5         -0.055343019    0.008236367   -0.071087234   -0.10317819     0.33760329   
       500   0.67436993     158.5          158.5          158.5          0.21343559     0.14235833     0.36677266     0.13117577     0.67436993   
       520   0.19894336     158.5          158.5          158.5         -0.079174688    0.018139747    0.0022342017  -0.25789801     0.19894336   
       540   0.67075118     158.5          158.5          158.5         -0.24988067    -0.1260033     -0.37728861    -0.24635008     0.67075118   
       560   0.20313379     158.5          158.5          158.5         -0.001210478    0.0086963901  -0.023634077    0.011306253    0.20313379   
       580   0.55366863     158.5          158.5          158.5          0.026568346    0.11988783     0.21525706    -0.25543985     0.55366863   
       600   0.3502786      158.5          158.5          158.5          0.1078102      0.11985131     0.15790162     0.045677653    0.3502786    
       620   0.65218653     158.5          158.5          158.5         -0.11519931    -0.11719268    -0.28138852     0.05298326     0.65218653   
       640   0.49052235     158.5          158.5          158.5         -0.1769978     -0.067546831   -0.2018632     -0.26158336     0.49052235   
       660   0.48000894     158.5          158.5          158.5          0.2921223      0.27683871     0.31524509     0.2842831      0.48000894   
       680   0.58754805     158.5          158.5          158.5          0.18718375    -0.10382634     0.17999706     0.48538052     0.58754805   
       700   0.61014073     158.5          158.5          158.5         -0.026452188   -0.10350991    -0.093817547    0.11797089     0.61014073   
       720   1.2253021      158.5          158.5          158.5          0.059003247    0.23948622    -0.072231411    0.0097549296   1.2253021    
       740   0.38466615     158.5          158.5          158.5          0.031702983   -0.21323646     0.080446924    0.22789849     0.38466615   
       760   1.1978063      158.5          158.5          158.5          0.30779163     0.059174898    0.24163133     0.62256865     1.1978063    
       780   0.44754275     158.5          158.5          158.5          0.1072798      0.28887996    -0.0016186115   0.03457806     0.44754275   
       800   0.84716379     158.5          158.5          158.5         -0.35865515    -0.094557888   -0.19170927    -0.7896983      0.84716379   
       820   0.68870945     158.5          158.5          158.5         -0.011808736    0.09646725     0.0055663658  -0.13745982     0.68870945   
       840   0.95243511     158.5          158.5          158.5          0.089091148    0.091962575   -0.050353639    0.22566451     0.95243511   
       860   0.6101974      158.5          158.5          158.5         -0.0037983773  -0.0051188459  -0.11709755     0.11082127     0.6101974    
       880   0.69011152     158.5          158.5          158.5         -0.085722047    0.070152448   -0.014048215   -0.31327037     0.69011152   
       900   0.46254829     158.5          158.5          158.5         -0.28040336     0.00086695713 -0.11713703    -0.72494002     0.46254829   
       920   0.32657097     158.5          158.5          158.5          0.089772819    0.080786398   -0.017192439    0.2057245      0.32657097   
       940   0.74064467     158.5          158.5          158.5          0.19947158     0.013353561    0.065188115    0.51987305     0.74064467   
       960   0.18140776     158.5          158.5          158.5         -0.080421242   -0.018455839   -0.059756775   -0.16305111     0.18140776   
       980   0.69498238     158.5          158.5          158.5         -0.027971331    0.082231006    0.12973447    -0.29587947     0.69498238   
      1000   0.19290316     158.5          158.5          158.5          0.029241961    0.01899261     0.053869257    0.014864018    0.19290316   
      1020   0.41459258     158.5          158.5          158.5          0.13751499    -0.0024038386  -0.038261085    0.45320989     0.41459258   
      1040   0.34338244     158.5          158.5          158.5          0.21752618     0.043281302    0.14882613     0.46047111     0.34338244   
      1060   0.55666747     158.5          158.5          158.5         -0.15141518     0.011612317    0.0096419051  -0.47549976     0.55666747   
      1080   0.39593058     158.5          158.5          158.5         -0.068455604    0.031947664    0.028352568   -0.26566704     0.39593058   
      1100   0.45751888     158.5          158.5          158.5          0.2083301      0.043739302    0.077363229    0.50388778     0.45751888   
      1120   0.44325438     158.5          158.5          158.5          0.031959486    0.057401017   -0.16621933     0.20469677     0.44325438   
      1140   0.71042862     158.5          158.5          158.5         -0.058066348    0.067836936    0.075261992   -0.31729797     0.71042862   
      1160   1.324571       158.5          158.5          158.5         -0.19900796     0.064755012    0.094942995   -0.7567219      1.324571     
      1180   0.56517057     158.5          158.5          158.5         -0.037757357    0.11747691    -0.083939927   -0.14680905     0.56517057   
      1200   1.5255889      158.5          158.5          158.5          0.33016812     0.16635728    -0.00085492765  0.825002       1.5255889    
      1220   0.73353109     158.5          158.5          158.5         -0.11191873     0.060961435   -0.14700774    -0.24970988     0.73353109   
      1240   0.91449732     158.5          158.5          158.5         -0.21589311     0.12638027     0.13460391    -0.90866352     0.91449732   
      1260   0.39656164     158.5          158.5          158.5          0.073376385    0.12515635     0.087346724    0.0076260829   0.39656164   
      1280   1.1856282      158.5          158.5          158.5          0.010537079   -0.12149022    -0.12311522     0.27621668     1.1856282    
      1300   0.6405827      158.5          158.5          158.5          0.19169081     0.29482481     0.1151418      0.16510582     0.6405827    
      1320   0.71771926     158.5          158.5          158.5         -0.070065398    0.072113375    0.033107232   -0.3154168      0.71771926   
      1340   0.51894032     158.5          158.5          158.5         -0.22172922    -0.33420244    -0.077839613   -0.25314563     0.51894032   
      1360   0.29890395     158.5          158.5          158.5          0.24101792     0.25597395     0.069605484    0.39747431     0.29890395   
      1380   0.79835543     158.5          158.5          158.5          0.13102178     0.15968583     0.062149758    0.17122975     0.79835543   
      1400   0.36751566     158.5          158.5          158.5         -0.045154541   -0.21224312     0.0053911113   0.071388383    0.36751566   
      1420   0.68842394     158.5          158.5          158.5          0.0041889762   0.018568044   -0.020035668    0.014034553    0.68842394   
      1440   0.49655533     158.5          158.5          158.5         -0.04823453     0.011405268   -0.041392817   -0.11471604     0.49655533   
      1460   0.39963676     158.5          158.5          158.5          0.22561429     0.14184262     0.13175384     0.4032464      0.39963676   
      1480   0.22675134     158.5          158.5          158.5          0.083871292   -0.01674926     0.06933715     0.19902598     0.22675134   
      1500   0.8400415      158.5          158.5          158.5         -0.223923      -0.10644967    -0.13170227    -0.43361706     0.8400415    
      1520   0.40782325     158.5          158.5          158.5          0.05452571     0.13664293     0.0087545204   0.018179679    0.40782325   
      1540   0.7316141      158.5          158.5          158.5          0.062607184   -0.063164247    0.049301645    0.20168415     0.7316141    
      1560   0.38900531     158.5          158.5          158.5          0.03119254     0.20893924    -0.092536141   -0.022825477    0.38900531   
      1580   0.51192823     158.5          158.5          158.5         -0.029151354    0.21016829    -0.12163741    -0.17598495     0.51192823   
      1600   1.2799878      158.5          158.5          158.5         -0.37513248    -0.52491651    -0.29870671    -0.30177421     1.2799878    
      1620   0.58034502     158.5          158.5          158.5          0.10251135     0.31909054    -0.064890735    0.053334264    0.58034502   
      1640   1.1800038      158.5          158.5          158.5          0.26136777     0.65086521    -0.027993055    0.16123114     1.1800038    
      1660   0.88437466     158.5          158.5          158.5         -0.16470799    -0.31362974    -0.11977543    -0.060718808    0.88437466   
      1680   0.96548492     158.5          158.5          158.5         -0.03534724    -0.20259987     0.11984577    -0.023287625    0.96548492   
      1700   0.35187813     158.5          158.5          158.5          0.044703131    0.16125952    -0.11648719     0.089337063    0.35187813   
      1720   1.132204       158.5          158.5          158.5          0.18740164     0.30333005     0.23643863     0.02243624     1.132204     
      1740   0.67410603     158.5          158.5          158.5          0.29239446     0.30834679     0.54000534     0.02883126     0.67410603   
      1760   0.899403       158.5          158.5          158.5         -0.1341942     -0.2264095     -0.17552956    -0.00064355647  0.899403     
      1780   0.36183774     158.5          158.5          158.5         -0.0051593807  -0.088633339   -0.0016973076   0.074852504    0.36183774   
      1800   0.26099546     158.5          158.5          158.5          0.18307757     0.24156876     0.3052474      0.0024165464   0.26099546   
      1820   0.58046254     158.5          158.5          158.5          0.022098502    0.1511105      0.022627802   -0.1074428      0.58046254   
      1840   0.43716613     158.5          158.5          158.5          0.025514938    0.020062697   -0.053678594    0.11016071     0.43716613   
      1860   0.55896428     158.5          158.5          158.5         -0.15427554    -0.29752902    -0.15451291    -0.010784681    0.55896428   
      1880   0.42713903     158.5          158.5          158.5         -0.084614793   -0.051248221   -0.10142115    -0.10117501     0.42713903   
      1900   0.5328037      158.5          158.5          158.5          0.16952565     0.37321449     0.055343302    0.080019174    0.5328037    
      1920   0.17367509     158.5          158.5          158.5         -0.13980981    -0.1611983     -0.096685286   -0.16154585     0.17367509   
      1940   0.7673544      158.5          158.5          158.5         -0.1979204     -0.41395818    -0.18114001     0.0013369746   0.7673544    
      1960   0.47314904     158.5          158.5          158.5          0.0424721      0.033732627   -0.029026738    0.12271041     0.47314904   
      1980   0.76020237     158.5          158.5          158.5          0.022550109    0.20995319     0.074873192   -0.21717606     0.76020237   
      2000   0.41168823     158.5          158.5          158.5          0.18660509     0.31452934     0.15493979     0.090346148    0.41168823   
      2020   0.40040209     158.5          158.5          158.5         -0.054456225   -0.20199758    -0.067215401    0.10584431     0.40040209   
      2040   0.90482685     158.5          158.5          158.5         -0.16841141    -0.29803809    -0.16306034    -0.044135796    0.90482685   
      2060   0.86925962     158.5          158.5          158.5          0.30261865     0.53993381     0.095169334    0.2727528      0.86925962   
      2080   0.81216654     158.5          158.5          158.5          0.20970483     0.39232396     0.1570169      0.079773628    0.81216654   
      2100   0.77709301     158.5          158.5          158.5         -0.0090532831  -0.11333551     0.030738583    0.055437075    0.77709301   
      2120   1.0398791      158.5          158.5          158.5         -0.042211762   -0.095044872   -0.18536039     0.15376998     1.0398791    
      2140   0.17405131     158.5          158.5          158.5         -0.082631416    0.027118159   -0.23558326    -0.039429149    0.17405131   
      2160   1.0815158      158.5          158.5          158.5          0.28551058     0.34834639     0.42706849     0.081116849    1.0815158    
      2180   0.51974981     158.5          158.5          158.5          0.080143568    0.11792743    -0.017166482    0.13966976     0.51974981   
      2200   1.09574        158.5          158.5          158.5         -0.29660556    -0.32369382    -0.38078551    -0.18533734     1.09574      
      2220   0.51408141     158.5          158.5          158.5          0.039375355   -0.098494023    0.30613104    -0.089510953    0.51408141   
      2240   0.27542499     158.5          158.5          158.5          0.029830771    0.012434202    0.025616452    0.051441658    0.27542499   
      2260   0.49533474     158.5          158.5          158.5          0.0047364103   0.11303089    -0.16733076     0.068509099    0.49533474   
      2280   0.46215684     158.5          158.5          158.5          0.015301873   -0.064071787    0.17773661    -0.067759202    0.46215684   
      2300   0.42500437     158.5          158.5          158.5         -0.18934483    -0.27876906    -0.054420005   -0.23484541     0.42500437   
      2320   0.42992829     158.5          158.5          158.5          0.078449739    0.18746398    -0.056272461    0.1041577      0.42992829   
      2340   0.30697139     158.5          158.5          158.5          0.14195068     0.15334403     0.059778041    0.21272997     0.30697139   
      2360   0.13851433     158.5          158.5          158.5         -0.089212065   -0.17020602     0.0050129975  -0.10244318     0.13851433   
      2380   0.54164866     158.5          158.5          158.5         -0.020953225    0.07452094    -0.0041531267  -0.13322749     0.54164866   
      2400   0.26210386     158.5          158.5          158.5         -0.020932274    0.071359345   -0.086225621   -0.047930547    0.26210386   
      2420   0.59798778     158.5          158.5          158.5          0.11361548     0.041825121    0.06656361     0.23245771     0.59798778   
      2440   0.29512177     158.5          158.5          158.5          0.18084823     0.2181778      0.080275793    0.24409111     0.29512177   
      2460   0.39235405     158.5          158.5          158.5         -0.2065718     -0.040365024   -0.13397971    -0.44537066     0.39235405   
      2480   0.4455689      158.5          158.5          158.5         -0.00067615115  0.026597025    0.050894873   -0.079520352    0.4455689    
      2500   0.57029144     158.5          158.5          158.5          0.2072963      0.17552939     0.071600098    0.37475942     0.57029144   
      2520   0.62607593     158.5          158.5          158.5          0.023684784    0.061386787   -0.06404973     0.073717294    0.62607593   
      2540   0.54352009     158.5          158.5          158.5          0.0411865      0.096284389    0.021349719    0.0059253917   0.54352009   
      2560   0.75574265     158.5          158.5          158.5         -0.18075303    -0.157401       0.026396495   -0.41125458     0.75574265   
      2580   0.13840554     158.5          158.5          158.5         -0.050909922   -0.036519371    0.021840269   -0.13805066     0.13840554   
      2600   0.80053352     158.5          158.5          158.5          0.23999867     0.1581332      0.030913619    0.53094919     0.80053352   
      2620   0.64596001     158.5          158.5          158.5         -0.11421808    -0.27690749     0.010127631   -0.075874369    0.64596001   
      2640   0.97783004     158.5          158.5          158.5         -0.18190344    -0.0052825413   0.0042914547  -0.54471924     0.97783004   
      2660   0.51600474     158.5          158.5          158.5         -0.0035271715   0.095238184    0.022422728   -0.12824243     0.51600474   
      2680   0.57898138     158.5          158.5          158.5          0.011434843   -0.23932128     0.038065782    0.23556002     0.57898138   
      2700   0.58136937     158.5          158.5          158.5          0.19629108     0.14977842     0.055635021    0.3834598      0.58136937   
      2720   1.0433675      158.5          158.5          158.5         -0.1268151      0.12365787    -0.035740932   -0.46836224     1.0433675    
      2740   0.58437541     158.5          158.5          158.5         -0.1444986      0.025121216   -0.0032941138  -0.45532289     0.58437541   
      2760   0.98249451     158.5          158.5          158.5          0.30597193     0.195064       0.14642556     0.57642624     0.98249451   
      2780   0.92464462     158.5          158.5          158.5          0.1327475      0.043058693   -0.11439988     0.46958369     0.92464462   
      2800   0.097752833    158.5          158.5          158.5          0.035997245    0.11187828    -0.022859792    0.018973247    0.097752833  
      2820   0.81150807     158.5          158.5          158.5          0.0421606      0.11782527     0.1629843     -0.15432777     0.81150807   
      2840   0.46361226     158.5          158.5          158.5         -0.054880281   -0.0060288487  -0.20191847     0.043306475    0.46361226   
      2860   0.68497461     158.5          158.5          158.5          0.21868368     0.050709005    0.035427738    0.56991429     0.68497461   
      2880   0.44642141     158.5          158.5          158.5          0.051871862    0.028366559    0.15440461    -0.027155587    0.44642141   
      2900   0.30647304     158.5          158.5          158.5         -0.21948632     0.013837053   -0.11717821    -0.55511779     0.30647304   
      2920   0.28187923     158.5          158.5          158.5         -0.026544462    0.025359016    0.00066292768 -0.10565533     0.28187923   
      2940   0.45781857     158.5          158.5          158.5         -0.00703809     0.014840342    0.064010767   -0.099965379    0.45781857   
      2960   0.32270791     158.5          158.5          158.5          0.018374319    0.0090682321   0.070747102   -0.024692376    0.32270791   
      2980   0.4172108      158.5          158.5          158.5         -0.034914586    0.0063761499  -0.022068698   -0.089051211    0.4172108    
      3000   0.46093561     158.5          158.5          158.5         -0.22100893     0.014301607   -0.1260272     -0.5513012      0.46093561   
      3020   0.085273478    158.5          158.5          158.5          0.085528758    0.026291438    0.21341547     0.016879361    0.085273478  
      3040   0.4514097      158.5          158.5          158.5          0.13775137     0.02878223    -0.016106315    0.4005782      0.4514097    
      3060   0.41397916     158.5          158.5          158.5         -0.074107411    0.029078481   -0.17885196    -0.072548752    0.41397916   
      3080   0.80242757     158.5          158.5          158.5          0.044980414    0.048113487    0.211791      -0.12496324     0.80242757   
      3100   0.53338513     158.5          158.5          158.5          0.013182267    0.062191955   -0.19136572     0.16872057     0.53338513   
      3120   0.55279684     158.5          158.5          158.5          0.18960301     0.10072152    -0.10609151     0.57417903     0.55279684   
      3140   0.45911968     158.5          158.5          158.5          0.28043955     0.11575761     0.39427555     0.33128548     0.45911968   
      3160   1.1903995      158.5          158.5          158.5         -0.21460921    -0.012534438   -0.29949515    -0.33179803     1.1903995    
      3180   0.64852825     158.5          158.5          158.5         -0.016629321    0.15569432    -0.19803015    -0.00755213     0.64852825   
      3200   0.83132074     158.5          158.5          158.5          0.20565566     0.0847625      0.32383474     0.20836975     0.83132074   
      3220   1.0445282      158.5          158.5          158.5          0.00087437147 -0.098296916    0.086949668    0.013970362    1.0445282    
      3240   0.37862244     158.5          158.5          158.5          0.016138822    0.1549365     -0.084605732   -0.021914304    0.37862244   
      3260   0.66992053     158.5          158.5          158.5         -0.22468458    -0.091755215   -0.31440863    -0.26788991     0.66992053   
      3280   0.66167645     158.5          158.5          158.5         -0.029458148   -0.14767057     0.085639197   -0.026343075    0.66167645   
      3300   0.88656384     158.5          158.5          158.5          0.22759821     0.1349555      0.30091671     0.24692243     0.88656384   
      3320   0.56715416     158.5          158.5          158.5         -0.10430063    -0.1461409     -0.11128235    -0.055478646    0.56715416   
      3340   0.64311928     158.5          158.5          158.5         -0.10288284    -0.057287899   -0.18687549    -0.064485138    0.64311928   
      3360   0.13827159     158.5          158.5          158.5         -0.020366248    0.041769631   -0.09953651    -0.0033318645   0.13827159   
      3380   0.78694728     158.5          158.5          158.5         -0.019711462   -0.069710792    0.051931524   -0.041355119    0.78694728   
      3400   0.58205754     158.5          158.5          158.5          0.21452371     0.11662863     0.35577752     0.17116498     0.58205754   
      3420   0.39139638     158.5          158.5          158.5         -0.07109068     0.012171533   -0.19085432    -0.034589257    0.39139638   
      3440   0.77029831     158.5          158.5          158.5         -0.14557158     0.040638682   -0.32676121    -0.15059221     0.77029831   
      3460   0.20083431     158.5          158.5          158.5          0.20422163     0.17282491     0.29713289     0.14270708     0.20083431   
      3480   0.47190211     158.5          158.5          158.5          0.081464686   -0.033806882    0.24404906     0.03415188     0.47190211   
      3500   0.55288583     158.5          158.5          158.5          0.016165702    0.17754724    -0.040755914   -0.088294224    0.55288583   
      3520   0.67276983     158.5          158.5          158.5         -0.010013171    0.096505624   -0.1772877      0.050742568    0.67276983   
      3540   0.65922469     158.5          158.5          158.5         -0.051513694   -0.11347257    -0.0576296      0.016561086    0.65922469   
      3560   0.63671835     158.5          158.5          158.5          0.2758304      0.26471931     0.50693498     0.055836914    0.63671835   
      3580   0.20889464     158.5          158.5          158.5          0.042812012    0.15796413     0.0836391     -0.11316719     0.20889464   
      3600   1.6263653      158.5          158.5          158.5         -0.21723683    -0.095227305   -0.58271163     0.026228441    1.6263653    
      3620   0.7912211      158.5          158.5          158.5          0.076132154    0.033228245   -0.020589356    0.21575757     0.7912211    
      3640   1.0834756      158.5          158.5          158.5          0.032263565    0.13631733     0.24293267    -0.28245931     1.0834756    
      3660   1.382912       158.5          158.5          158.5          0.063216679    0.23741476     0.038378539   -0.086143262    1.382912     
      3680   0.67803701     158.5          158.5          158.5         -0.070590374    0.067920196   -0.36509125     0.085399934    0.67803701   
      3700   0.69670981     158.5          158.5          158.5         -0.34952294    -0.2896174     -0.61770155    -0.14124988     0.69670981   
      3720   0.59090785     158.5          158.5          158.5          0.11325289     0.23284544     0.076328663    0.030584565    0.59090785   
      3740   0.78328072     158.5          158.5          158.5          0.14753831     0.28216181     0.19817694    -0.037723811    0.78328072   
      3760   0.66842989     158.5          158.5          158.5         -0.074626616   -0.23785548    -0.011154086    0.02512972     0.66842989   
      3780   0.65005003     158.5          158.5          158.5          0.035425799   -0.0083762162  -0.0015348267   0.11618844     0.65005003   
      3800   0.19826471     158.5          158.5          158.5         -0.022075799    0.069872733   -0.10272169    -0.033378442    0.19826471   
      3820   0.64333359     158.5          158.5          158.5          0.1473816     -0.021333379    0.3415024      0.12197579     0.64333359   
      3840   0.6248872      158.5          158.5          158.5          0.22275772     0.017462161    0.45961522     0.1911958      0.6248872    
      3860   0.55768206     158.5          158.5          158.5         -0.092963297   -0.043882945   -0.22921524    -0.0057917087   0.55768206   
      3880   0.77944394     158.5          158.5          158.5          0.042378107    0.063944398    0.031546929    0.031642994    0.77944394   
      3900   0.43031504     158.5          158.5          158.5          0.12027473    -0.085973721    0.32154796     0.12524994     0.43031504   
      3920   0.26767873     158.5          158.5          158.5          0.019568793    0.0072304168  -0.0082795473   0.05975551     0.26767873   
      3940   0.55220947     158.5          158.5          158.5          0.067970773    0.24718895    -0.061907962    0.018631332    0.55220947   
      3960   0.81698709     158.5          158.5          158.5         -0.22855681    -0.22825961    -0.27413766    -0.18327316     0.81698709   
      3980   0.64401594     158.5          158.5          158.5         -0.07360496     0.031256811   -0.21902625    -0.03304544     0.64401594   
      4000   0.87059409     158.5          158.5          158.5          0.16473229     0.367194      -0.13096419     0.25796705     0.87059409   
      4020   0.1911741      158.5          158.5          158.5         -0.18472352    -0.088436916   -0.3241671     -0.14156653     0.1911741    
      4040   1.047551       158.5          158.5          158.5         -0.14773151    -0.019108076   -0.10438254    -0.3197039      1.047551     
      4060   0.668057       158.5          158.5          158.5          0.012311996    0.16671224    -0.13663116     0.0068549072   0.668057     
      4080   0.7500996      158.5          158.5          158.5          0.030068644    0.041787634   -0.06587443     0.11429273     0.7500996    
      4100   1.1172371      158.5          158.5          158.5          0.25514944     0.077737143    0.37126676     0.31644441     1.1172371    
      4120   0.79612142     158.5          158.5          158.5         -0.090189317    0.032246445   -0.067378871   -0.23543552     0.79612142   
      4140   0.34571736     158.5          158.5          158.5         -0.058635386    0.077067802    0.039535197   -0.29250916     0.34571736   
      4160   0.66838488     158.5          158.5          158.5          0.2723542      0.12578086     0.43585108     0.25543064     0.66838488   
      4180   0.79426049     158.5          158.5          158.5          0.088143598    0.098876317   -0.057105319    0.2226598      0.79426049   
      4200   0.81712336     158.5          158.5          158.5          0.10027782     0.069263898    0.10587158     0.12569798     0.81712336   
      4220   0.79496265     158.5          158.5          158.5         -0.022987573    0.050370893    0.16389632    -0.28322994     0.79496265   
      4240   0.17620726     158.5          158.5          158.5         -0.092753606    0.027412542   -0.090464867   -0.21520849     0.17620726   
      4260   0.59688573     158.5          158.5          158.5          0.2092609      0.063591097    0.067756738    0.49643486     0.59688573   
      4280   0.35831534     158.5          158.5          158.5         -0.022609532   -0.0067047723  -0.026883618   -0.034240205    0.35831534   
      4300   0.41314922     158.5          158.5          158.5         -0.17302877    -0.0077883535  -0.081536616   -0.42976135     0.41314922   
      4320   0.68109919     158.5          158.5          158.5          0.019610009    0.07935628    -0.0044456157  -0.016080635    0.68109919   
      4340   0.40960876     158.5          158.5          158.5         -0.054884518   -0.064946284   -0.11360804     0.013900768    0.40960876   
      4360   0.20297444     158.5          158.5          158.5          0.041472192   -0.014521956    0.0017041925   0.13723434     0.20297444   
      4380   0.37848082     158.5          158.5          158.5         -0.023059851    0.091008736    0.011626884   -0.17181517     0.37848082   
      4400   0.49599544     158.5          158.5          158.5         -0.20166373    -0.024641933   -0.076868937   -0.50348033     0.49599544   
      4420   0.64383505     158.5          158.5          158.5          0.12386177     0.013254227    0.064383072    0.29394801     0.64383505   
      4440   0.71118367     158.5          158.5          158.5          0.10867827    -0.034168678    0.012960531    0.34724295     0.71118367   
      4460   0.17802803     158.5          158.5          158.5         -0.025549816    0.067889056   -0.0016847675  -0.14285374     0.17802803   
      4480   0.89751315     158.5          158.5          158.5          0.016513952    0.19020794     0.047526831   -0.18819291     0.89751315   
      4500   0.7069239      158.5          158.5          158.5         -0.083219625   -0.14184923     0.03373088    -0.14154053     0.7069239    
      4520   0.86567216     158.5          158.5          158.5          0.23860447     0.19583318     0.027894476    0.49208575     0.86567216   
      4540   1.0360104      158.5          158.5          158.5          0.26041948     0.18824113     0.02932084     0.56369646     1.0360104    
      4560   1.2360032      158.5          158.5          158.5         -0.19275354    -0.24516762     0.033774888   -0.36686789     1.2360032    
      4580   0.3502845      158.5          158.5          158.5          0.099641061    0.28652365     0.055936444   -0.043536913    0.3502845    
      4600   0.49939834     158.5          158.5          158.5          0.16849628     0.13120463     0.047400884    0.32688332     0.49939834   
      4620   0.76909529     158.5          158.5          158.5          0.0071483115  -0.19958934    -0.015444651    0.23647892     0.76909529   
      4640   0.85133831     158.5          158.5          158.5          0.076328387    0.22816117     0.028575475   -0.027751487    0.85133831   
      4660   1.0987937      158.5          158.5          158.5         -0.18753993     0.081840264   -0.087782365   -0.55667769     1.0987937    
      4680   0.26172462     158.5          158.5          158.5         -0.028593948   -0.038645862   -0.041451399   -0.0056845831   0.26172462   
      4700   0.54938594     158.5          158.5          158.5          0.13593599     0.13389392     0.032440476    0.24147357     0.54938594   
      4720   0.70207745     158.5          158.5          158.5         -0.15745965     0.091391403   -0.27443515    -0.28933519     0.70207745   
      4740   0.50938701     158.5          158.5          158.5         -0.10251854     0.00070304533 -0.0056251215  -0.30263354     0.50938701   
      4760   0.78529926     158.5          158.5          158.5         -0.024148155   -0.03036588     0.021517381   -0.063595965    0.78529926   
      4780   0.82550795     158.5          158.5          158.5         -0.011822344    0.07917976    -0.21951004     0.10486325     0.82550795   
      4800   0.17492312     158.5          158.5          158.5          0.17189857     0.19389603     0.11777836     0.20402133     0.17492312   
      4820   0.53839113     158.5          158.5          158.5         -0.14354745    -0.13367845     0.0092508912  -0.3062148      0.53839113   
      4840   0.44083203     158.5          158.5          158.5         -0.057708554   -0.032176478   -0.030405969   -0.11054322     0.44083203   
      4860   0.71426419     158.5          158.5          158.5          0.27044299     0.24939261     0.25407356     0.3078628      0.71426419   
      4880   1.0603853      158.5          158.5          158.5          0.091706035    0.16583306     0.18971031    -0.080425272    1.0603853    
      4900   0.24647904     158.5          158.5          158.5          0.1204862      0.1095674      0.24624404     0.0056471557   0.24647904   
      4920   0.66518445     158.5          158.5          158.5          0.010468875   -0.034326651    0.046530777    0.0192025      0.66518445   
      4940   0.62173532     158.5          158.5          158.5         -0.081134959    0.0085964238  -0.0089279566  -0.24307334     0.62173532   
      4960   0.60385392     158.5          158.5          158.5          0.27112805     0.34111594     0.23812932     0.23413888     0.60385392   
      4980   0.72800471     158.5          158.5          158.5          0.01530367    -0.028094688   -0.077734185    0.15173988     0.72800471   
      5000   0.96325429     158.5          158.5          158.5         -0.21165349    -0.24182386    -0.21785185    -0.17528478     0.96325429   
      5020   0.38822315     158.5          158.5          158.5         -0.0010043474   0.025320262   -0.049837525    0.021504221    0.38822315   
      5040   0.52646057     158.5          158.5          158.5         -0.071910863   -0.12470288    -0.14868353     0.057653822    0.52646057   
      5060   0.44940037     158.5          158.5          158.5          0.038051754   -0.03654742     0.0069404896   0.14376219     0.44940037   
      5080   0.8728052      158.5          158.5          158.5         -0.083267445   -0.16181579    -0.0073289985  -0.080657549    0.8728052    
      5100   1.0536465      158.5          158.5          158.5         -0.23764263    -0.38433387    -0.23486052    -0.093733501    1.0536465    
      5120   0.42372448     158.5          158.5          158.5          0.17178508     0.10432029     0.12395907     0.28707589     0.42372448   
      5140   0.55558904     158.5          158.5          158.5          0.06378708     0.24097646     0.091534372   -0.14114959     0.55558904   
      5160   0.64693754     158.5          158.5          158.5         -0.0642708     -0.033971871   -0.079075776   -0.079764753    0.64693754   
      5180   0.58869935     158.5          158.5          158.5          0.10584388     0.032338964    0.042933242    0.24225945     0.58869935   
      5200   0.78021868     158.5          158.5          158.5          0.0018585243   0.22183528    -0.092865239   -0.12339447     0.78021868   
      5220   1.0354872      158.5          158.5          158.5          0.23075181     0.58155331     0.13889861    -0.02819649     1.0354872    
      5240   0.36080888     158.5          158.5          158.5          0.19820436     0.23150468     0.23276699     0.1303414      0.36080888   
      5260   0.49532182     158.5          158.5          158.5         -0.17239845    -0.21612382    -0.29993001    -0.0011415185   0.49532182   
      5280   0.40350898     158.5          158.5          158.5          0.050598229    0.20627461    -0.10196144     0.047481517    0.40350898   
      5300   0.54051536     158.5          158.5          158.5          0.098596751    0.10393632     0.1829967      0.0088572378   0.54051536   
      5320   0.89837306     158.5          158.5          158.5          0.018140997   -0.0021599542   0.06226265    -0.0056797035   0.89837306   
      5340   0.47316895     158.5          158.5          158.5          0.028238239    0.088919159   -0.048157146    0.043952704    0.47316895   
      5360   0.48216762     158.5          158.5          158.5         -0.22588828    -0.47235016    -0.19849793    -0.0068167483   0.48216762   
      5380   0.51541727     158.5          158.5          158.5         -0.0095050525  -0.22984767     0.19665275     0.0046797636   0.51541727   
      5400   0.43296103     158.5          158.5          158.5          0.1205141      0.25057899     0.090915217    0.020048103    0.43296103   
      5420   0.52054331     158.5          158.5          158.5         -0.13126244    -0.19904088    -0.1873455     -0.0074009539   0.52054331   
      5440   0.97698861     158.5          158.5          158.5         -0.049279356   -0.31088511     0.17097765    -0.0079306025   0.97698861   
      5460   0.29315624     158.5          158.5          158.5         -0.048957401   -0.086497178   -0.045538416   -0.014836608    0.29315624   
      5480   0.45663747     158.5          158.5          158.5          0.0017092566   0.15289975    -0.16631263     0.018540646    0.45663747   
      5500   0.36729357     158.5          158.5          158.5          0.20954326     0.18975549     0.29993744     0.13893683     0.36729357   
      5520   0.71061761     158.5          158.5          158.5         -0.11344361    -0.13394769    -0.12040425    -0.085978896    0.71061761   
      5540   1.2325082      158.5          158.5          158.5         -0.027215116    0.28741657    -0.20076508    -0.16829684     1.2325082    
      5560   0.59517198     158.5          158.5          158.5          0.27377662     0.4416653      0.19460266     0.18506189     0.59517198   
      5580   0.78570904     158.5          158.5          158.5          0.076297975    0.01928959     0.081220131    0.1283842      0.78570904   
      5600   1.0900727      158.5          158.5          158.5          0.051742867    0.40619019    -0.072208405   -0.17875319     1.0900727    
      5620   0.486098       158.5          158.5          158.5         -0.011626501    0.13959792    -0.022754559   -0.15172286     0.486098     
      5640   0.82884509     158.5          158.5          158.5         -0.0063844567  -0.078711293   -0.010775104    0.070333026    0.82884509   
      5660   1.4007266      158.5          158.5          158.5          0.28967513     0.46162425     0.12736932     0.28003181     1.4007266    
      5680   0.68401676     158.5          158.5          158.5         -0.040572028    0.050373378    0.029305945   -0.20139541     0.68401676   
      5700   0.7203467      158.5          158.5          158.5         -0.12758024    -0.23567142    -0.060840011   -0.0862293      0.7203467    
      5720   0.20864557     158.5          158.5          158.5          0.054340276    0.041301615    0.03898532     0.082733894    0.20864557   
      5740   0.44464784     158.5          158.5          158.5         -0.088309022   -0.029130334   -0.041215512   -0.19458122     0.44464784   
      5760   0.74332955     158.5          158.5          158.5          0.044228123   -0.053763826   -0.052275559    0.23872375     0.74332955   
      5780   0.4773617      158.5          158.5          158.5         -0.042301272   -0.1431787     -0.052357713    0.068632594    0.4773617    
      5800   0.48059215     158.5          158.5          158.5         -0.21195659    -0.13232591    -0.073358131   -0.43018573     0.48059215   
      5820   0.42767606     158.5          158.5          158.5          0.084619898    0.063903819    0.045346958    0.14460892     0.42767606   
      5840   0.20543237     158.5          158.5          158.5          0.037621193   -0.036928292   -0.052744043    0.20253592     0.20543237   
      5860   0.32741737     158.5          158.5          158.5         -0.053275212    0.015732799   -0.022108942   -0.15344949     0.32741737   
      5880   0.71766916     158.5          158.5          158.5          0.056536775    0.084747297    0.13359591    -0.048732883    0.71766916   
      5900   0.4586348      158.5          158.5          158.5         -0.029783421    0.017899503   -0.064375675   -0.042874092    0.4586348    
      5920   0.41883489     158.5          158.5          158.5          0.17503561     0.16861251     0.046545944    0.30994839     0.41883489   
      5940   0.24666124     158.5          158.5          158.5          0.14234227     0.16056831     0.094248583    0.17220991     0.24666124   
      5960   0.4555597      158.5          158.5          158.5         -0.12252329    -0.060187133   -0.010283927   -0.29709881     0.4555597    
      5980   0.84217891     158.5          158.5          158.5          0.12464617     0.055926119    0.1961233      0.12188909     0.84217891   
      6000   0.69058696     158.5          158.5          158.5          0.089734758    0.10582552    -0.098111278    0.26149003     0.69058696   
      6020   0.44709914     158.5          158.5          158.5          0.034949497    0.050840694   -0.089041182    0.14304898     0.44709914   
      6040   0.78218977     158.5          158.5          158.5          0.073145157    0.045469088    0.23118281    -0.057216428    0.78218977   
      6060   0.452133       158.5          158.5          158.5         -0.24983462    -0.0058586158  -0.1707642     -0.57288104     0.452133     
      6080   0.36832536     158.5          158.5          158.5         -0.011236098    0.060859882   -0.014760335   -0.079807842    0.36832536   
      6100   1.1833656      158.5          158.5          158.5          0.10296692     0.10918518     0.12653119     0.073184406    1.1833656    
      6120   0.70128067     158.5          158.5          158.5         -0.18711207     0.0042073607  -0.20419525    -0.36134832     0.70128067   
      6140   0.75048551     158.5          158.5          158.5         -0.04548829     0.047841522    0.071682362   -0.25598875     0.75048551   
      6160   0.3725405      158.5          158.5          158.5         -0.043679126    0.11997533     0.095418285   -0.34643099     0.3725405    
      6180   0.28875287     158.5          158.5          158.5         -0.010062728    0.023166662   -0.069547369    0.016192523    0.28875287   
      6200   1.0812559      158.5          158.5          158.5          0.18711933     0.032810927    0.053150015    0.47539704     1.0812559    
      6220   0.90686799     158.5          158.5          158.5         -0.083163954    0.03035041     0.010624069   -0.29046634     0.90686799   
      6240   0.52894288     158.5          158.5          158.5          0.05490583     0.15821742     0.02817942    -0.021679346    0.52894288   
      6260   0.88318408     158.5          158.5          158.5          0.17560544     0.085597288   -0.039549207    0.48076825     0.88318408   
      6280   0.40607735     158.5          158.5          158.5          0.02567027    -0.069077917    0.016803671    0.12928506     0.40607735   
      6300   0.36994829     158.5          158.5          158.5          0.13393383     0.19284814     0.094796746    0.11415661     0.36994829   
      6320   0.9415811      158.5          158.5          158.5         -0.016242779    0.076576916   -0.095729285   -0.029575969    0.9415811    
      6340   0.56255364     158.5          158.5          158.5         -0.026333908   -0.062285808   -0.04664912     0.029933205    0.56255364   
      6360   0.61809077     158.5          158.5          158.5          0.21480205     0.15579285     0.15256909     0.33604421     0.61809077   
      6380   0.28550216     158.5          158.5          158.5         -0.073944298   -0.097657687   -0.020212356   -0.10396285     0.28550216   
      6400   0.20615468     158.5          158.5          158.5         -0.1348        -0.028742543   -0.11063248    -0.26502497     0.20615468   
      6420   0.53908626     158.5          158.5          158.5          0.0095771809   0.082297516   -0.026123282   -0.027442691    0.53908626   
      6440   0.58423711     158.5          158.5          158.5         -0.066448632   -0.17992205    -0.010005162   -0.0094186798   0.58423711   
      6460   0.34115359     158.5          158.5          158.5          0.061812601    0.018596056    0.036483636    0.13035811     0.34115359   
      6480   0.41450499     158.5          158.5          158.5         -0.058920192    0.011154418   -0.091123018   -0.096791975    0.41450499   
      6500   0.32652255     158.5          158.5          158.5         -0.16981914    -0.10965341    -0.1700196     -0.22978442     0.32652255   
      6520   0.22803609     158.5          158.5          158.5          0.10219115     0.085295719    0.12734663     0.093931104    0.22803609   
      6540   0.65644994     158.5          158.5          158.5          0.039304631   -0.049202562    0.065762854    0.1013536      0.65644994   
      6560   0.56553019     158.5          158.5          158.5          0.006126249    0.023204546   -0.088412738    0.083586939    0.56553019   
      6580   0.55162817     158.5          158.5          158.5          0.045813151    0.18509954     0.068081157   -0.11574124     0.55162817   
      6600   0.45733527     158.5          158.5          158.5         -0.0882198      0.0035391257   0.0052978957  -0.27349642     0.45733527   
      6620   0.3635792      158.5          158.5          158.5          0.22994605     0.086749447    0.19571997     0.40736874     0.3635792    
      6640   0.97297858     158.5          158.5          158.5          0.17124523     0.19118351     0.29095554     0.031596637    0.97297858   
      6660   1.4360336      158.5          158.5          158.5         -0.10716495     0.12063647     0.072576039   -0.51470736     1.4360336    
      6680   0.59102738     158.5          158.5          158.5          0.19175097     0.092249467    0.17518891     0.30781453     0.59102738   
      6700   1.110637       158.5          158.5          158.5          0.048750947    0.052105805    0.037345598    0.056801439    1.110637     
      6720   0.86200452     158.5          158.5          158.5         -0.016411373    0.11144282     0.10498122    -0.26565815     0.86200452   
      6740   0.18263494     158.5          158.5          158.5          0.11910384     0.088635676    0.0085095313   0.26016632     0.18263494   
      6760   1.0584141      158.5          158.5          158.5         -0.21952984    -0.021681247   -0.57839978    -0.058508482    1.0584141    
      6780   0.83381728     158.5          158.5          158.5          0.0088739271   0.025085717    0.049794533   -0.048258469    0.83381728   
      6800   0.7328746      158.5          158.5          158.5          0.10347457     0.079405757    0.15870055     0.072317413    0.7328746    
      6820   0.63116308     158.5          158.5          158.5         -0.14846818     0.043148846   -0.50487244     0.016319067    0.63116308   
      6840   0.21614237     158.5          158.5          158.5         -0.031080054    0.043294122   -0.19285827     0.056323991    0.21614237   
      6860   0.56176454     158.5          158.5          158.5         -0.10830217    -0.11808796    -0.16079479    -0.046023757    0.56176454   
      6880   0.80227788     158.5          158.5          158.5          0.0014980728   0.072912646   -0.1008736      0.032455171    0.80227788   
      6900   0.44935045     158.5          158.5          158.5          0.21117748     0.26712148     0.28302642     0.08338453     0.44935045   
      6920   0.72464211     158.5          158.5          158.5         -0.14489433    -0.25617148    -0.10389988    -0.074611623    0.72464211   
      6940   0.54003924     158.5          158.5          158.5         -0.0034230233   0.020869817   -0.056834144    0.025695257    0.54003924   
      6960   0.099389674    158.5          158.5          158.5          0.1931057      0.20363361     0.31215257     0.063530909    0.099389674  
      6980   0.7508266      158.5          158.5          158.5          0.037428866   -0.25631659     0.36885077    -0.00024758297  0.7508266    
      7000   0.68521572     158.5          158.5          158.5          0.18284251     0.13030171     0.39807769     0.020148117    0.68521572   
      7020   0.79509372     158.5          158.5          158.5         -0.015829581    0.069524589   -0.14578403     0.028770701    0.79509372   
      7040   0.64613577     158.5          158.5          158.5         -0.056707932   -0.24990042     0.035594265    0.044182356    0.64613577   
      7060   0.27685048     158.5          158.5          158.5          0.29339151     0.28619141     0.4933103      0.10067283     0.27685048   
      7080   1.3674128      158.5          158.5          158.5         -0.096848198    0.10001914    -0.43792474     0.047361006    1.3674128    
      7100   1.943456       158.5          158.5          158.5         -0.078635955    0.067606853   -0.28321156    -0.020303157    1.943456     
      7120   0.81322992     158.5          158.5          158.5          0.010951215    0.074779609   -0.061323084    0.019397119    0.81322992   
      7140   1.9340926      158.5          158.5          158.5         -0.13705241     0.043325382   -0.5419624      0.087479791    1.9340926    
      7160   1.4793661      158.5          158.5          158.5          0.14069058     0.1872027     -0.010749961    0.24561901     1.4793661    
      7180   0.27343932     158.5          158.5          158.5         -0.090519413    0.012485402   -0.12926102    -0.15478262     0.27343932   
      7200   0.6214028      158.5          158.5          158.5         -0.19736507    -0.034023963   -0.42468247    -0.13338879     0.6214028    
      7220   0.6376352      158.5          158.5          158.5          0.13468255     0.084333074   -0.024393227    0.3441078      0.6376352    
      7240   0.88915068     158.5          158.5          158.5         -0.019278186    0.083794155    0.046783127   -0.18841184     0.88915068   
      7260   0.86923825     158.5          158.5          158.5          0.048494543    0.071104701    0.12356424    -0.049185313    0.86923825   
      7280   0.33008402     158.5          158.5          158.5          0.12168517     0.040601983    0.071002856    0.25345067     0.33008402   
      7300   0.53117251     158.5          158.5          158.5         -0.087320451    0.060733328    0.038577891   -0.36127257     0.53117251   
      7320   0.73804295     158.5          158.5          158.5          0.17046919     0.17314995     0.33664209     0.0016155397   0.73804295   
      7340   0.42843569     158.5          158.5          158.5          0.14483866     0.088545525    0.05742528     0.28854519     0.42843569   
      7360   0.81063601     158.5          158.5          158.5         -0.044936083    0.048675143   -0.046811565   -0.13667183     0.81063601   
      7380   0.91752375     158.5          158.5          158.5          0.077056227    0.1690103      0.20225849    -0.1401001      0.91752375   
      7400   0.17706567     158.5          158.5          158.5         -0.013923986   -0.019406754   -0.05454765     0.032182445    0.17706567   
      7420   0.4353922      158.5          158.5          158.5          0.031966725   -0.019246533   -0.01880819     0.1339549      0.4353922    
      7440   0.57314265     158.5          158.5          158.5          0.061078635    0.14336749     0.019195203    0.02067321     0.57314265   
      7460   0.88121916     158.5          158.5          158.5         -0.21199302    -0.16959912    -0.12761082    -0.33876912     0.88121916   
      7480   1.1491135      158.5          158.5          158.5          0.051511905    0.022690486   -0.019861854    0.15170708     1.1491135    
      7500   0.40347667     158.5          158.5          158.5          0.076487357    0.035171798    0.030580472    0.1637098      0.40347667   
      7520   0.64336956     158.5          158.5          158.5         -0.17244079    -0.21118404    -0.012052754   -0.29408559     0.64336956   
      7540   1.3196334      158.5          158.5          158.5          0.0058333286   0.16803879     0.011542698   -0.1620815      1.3196334    
      7560   0.4540823      158.5          158.5          158.5         -0.093234975   -0.016604333   -0.00016714773 -0.26293344     0.4540823    
      7580   1.4381784      158.5          158.5          158.5          0.0069217389  -0.044306838    0.031138471    0.033933584    1.4381784    
      7600   1.5426486      158.5          158.5          158.5          0.25579309     0.22699589     0.12229538     0.41808799     1.5426486    
      7620   0.51052295     158.5          158.5          158.5         -0.094497194   -0.011774376   -0.011051215   -0.26066599     0.51052295   
      7640   0.65970788     158.5          158.5          158.5          0.031484275    0.088042531   -0.0046560479   0.011066343    0.65970788   
      7660   0.35160615     158.5          158.5          158.5          0.14607562     0.11520005     0.092449624    0.23057719     0.35160615   
      7680   0.75571466     158.5          158.5          158.5          0.016395417    0.039690565   -0.068645045    0.078140731    0.75571466   
      7700   0.98159628     158.5          158.5          158.5          0.15031086     0.056023774    0.033393509    0.3615153      0.98159628   
      7720   0.32957165     158.5          158.5          158.5         -0.00056127904  0.01786496     0.0080678748  -0.027616672    0.32957165   
      7740   0.35725149     158.5          158.5          158.5         -0.045016679    0.03084218     0.025491257   -0.19138347     0.35725149   
      7760   0.47327271     158.5          158.5          158.5          0.12591579     0.054724171    0.072926608    0.25009659     0.47327271   
      7780   0.28655075     158.5          158.5          158.5         -0.069353503   -0.0059400692  -0.14712583    -0.054994613    0.28655075   
      7800   0.61313773     158.5          158.5          158.5          0.0011654683   0.022793862    0.061320776   -0.080618233    0.61313773   
      7820   0.68367962     158.5          158.5          158.5          0.017161242    0.014242811    0.078902823   -0.041661908    0.68367962   
      7840   0.31292394     158.5          158.5          158.5         -0.14386489     0.0046751504  -0.21983648    -0.21643334     0.31292394   
      7860   0.35361748     158.5          158.5          158.5          0.059482125    0.068117299    0.039798905    0.070530171    0.35361748   
      7880   0.38850467     158.5          158.5          158.5         -0.07199435     0.029570615   -0.046360954   -0.19919271     0.38850467   
      7900   0.67231415     158.5          158.5          158.5         -0.16404158     0.02211238    -0.14107536    -0.37316177     0.67231415   
      7920   1.1106436      158.5          158.5          158.5          0.14101127     0.072171666    0.15573838     0.19512376     1.1106436    
      7940   0.59903011     158.5          158.5          158.5          0.0040931453   0.014579963   -0.11062249     0.10832196     0.59903011   
      7960   0.39067649     158.5          158.5          158.5          0.014410823    0.10040246     0.0048336069  -0.0620036      0.39067649   
      7980   1.0512236      158.5          158.5          158.5          0.078242845    0.1262883      0.18473802    -0.076297793    1.0512236    
      8000   0.59924932     158.5          158.5          158.5         -0.053765758    0.049528323   -0.086019259   -0.12480634     0.59924932   
      8020   0.89704242     158.5          158.5          158.5          0.25447723     0.23773327     0.18801501     0.3376834      0.89704242   
      8040   1.4063657      158.5          158.5          158.5          0.10408098     0.22746488     0.1494107     -0.064632642    1.4063657    
      8060   0.68080468     158.5          158.5          158.5         -0.038784722    0.039309957   -0.099958453   -0.055705669    0.68080468   
      8080   0.48289823     158.5          158.5          158.5          0.15212063     0.19586154     0.09891399     0.16158637     0.48289823   
      8100   0.41393111     158.5          158.5          158.5         -0.048753347    0.1196902      0.059039722   -0.32498997     0.41393111   
      8120   0.55585832     158.5          158.5          158.5          0.050801243    0.0049009924   0.036979418    0.11052332     0.55585832   
      8140   1.2675684      158.5          158.5          158.5          0.10605859     0.032607592    0.013208806    0.27235938     1.2675684    
      8160   0.72076395     158.5          158.5          158.5         -0.18740898    -0.14157885    -0.10297142    -0.31767666     0.72076395   
      8180   0.52076786     158.5          158.5          158.5          0.0096415408  -0.070231555   -0.00028645998  0.099442637    0.52076786   
      8200   0.89862852     158.5          158.5          158.5         -0.041176848   -0.28490343     0.004882544    0.15649034     0.89862852   
      8220   0.28046328     158.5          158.5          158.5         -0.13453257    -0.22431034    -0.060744651   -0.11854273     0.28046328   
      8240   0.66904186     158.5          158.5          158.5          0.058662866    0.13410964     0.043197173   -0.0013182193   0.66904186   
      8260   1.1123195      158.5          158.5          158.5         -0.071853485   -0.24894459     0.012660531    0.0207236      1.1123195    
      8280   0.51234258     158.5          158.5          158.5          0.0013156732  -0.0011515718  -0.0037825114   0.0088811028   0.51234258   
      8300   0.567778       158.5          158.5          158.5          0.14364495     0.39387462     0.0079102651   0.029149957    0.567778     
      8320   0.30282303     158.5          158.5          158.5         -0.068700715   -0.12682934    -0.046135129   -0.033137673    0.30282303   
      8340   0.46658213     158.5          158.5          158.5          0.087625367    0.12865791     0.097839098    0.036379094    0.46658213   
      8360   1.1818389      158.5          158.5          158.5          0.092207041    0.4440179     -0.2001523      0.03275553     1.1818389    
      8380   0.66000301     158.5          158.5          158.5          0.038475443    0.12629646    -0.020162727    0.0092925972   0.66000301   
      8400   0.61841266     158.5          158.5          158.5          0.18401679     0.20739955     0.32587579     0.018775023    0.61841266   
      8420   0.97111455     158.5          158.5          158.5         -0.055116428    0.14589119    -0.32819444     0.016953966    0.97111455   
      8440   0.20565241     158.5          158.5          158.5         -0.025291398    0.10398283    -0.22167287     0.041815848    0.20565241   
      8460   0.66864902     158.5          158.5          158.5          0.20004087     0.12314165     0.43181263     0.045168337    0.66864902   
      8480   1.1478649      158.5          158.5          158.5         -0.088511853   -0.079277977   -0.1949342      0.0086766122   1.1478649    
      8500   0.88602642     158.5          158.5          158.5         -0.038568423    0.067349818   -0.1752972     -0.0077578889   0.88602642   
      8520   0.93293389     158.5          158.5          158.5          0.0056923848  -0.23676251     0.21165969     0.042179977    0.93293389   
      8540   0.33237352     158.5          158.5          158.5         -0.13876159    -0.37353656    -0.052793452    0.010045247    0.33237352   
      8560   0.82806726     158.5          158.5          158.5          0.083087791    0.18082795    -0.012935792    0.081371219    0.82806726   
      8580   1.732634       158.5          158.5          158.5         -0.057318829   -0.17483849     0.013836323   -0.010954315    1.732634     
      8600   0.81075631     158.5          158.5          158.5         -0.095347903   -0.25601625    -0.022696999   -0.0073304621   0.81075631   
      8620   1.083871       158.5          158.5          158.5          0.16255715     0.30482478     0.10357367     0.079273003    1.083871     
      8640   1.3238647      158.5          158.5          158.5         -0.070711184    0.0091929728  -0.058462003   -0.16286452     1.3238647    
      8660   0.23131841     158.5          158.5          158.5          0.078474821    0.013201171    0.029231455    0.19299184     0.23131841   
      8680   0.38255456     158.5          158.5          158.5          0.10297616     0.20240262     0.072200219    0.034325642    0.38255456   
      8700   0.79346867     158.5          158.5          158.5         -0.10668851    -0.0083402802  -0.002120568   -0.30960467     0.79346867   
      8720   0.56462659     158.5          158.5          158.5          0.16630549     0.12808769     0.10181775     0.26901104     0.56462659   
      8740   0.66934573     158.5          158.5          158.5          0.080360293    0.13206849     0.092843142    0.016169246    0.66934573   
      8760   0.35466426     158.5          158.5          158.5         -0.046450525    0.069268224    0.071007364   -0.27962716     0.35466426   
      8780   0.19414428     158.5          158.5          158.5          0.12425056     0.10679258     0.079169166    0.18678993     0.19414428   
      8800   0.74270025     158.5          158.5          158.5         -0.059673325   -0.054271415   -0.10208462    -0.022663941    0.74270025   
      8820   0.50057337     158.5          158.5          158.5          0.0096224216   0.057597685    0.064400069   -0.093130489    0.50057337   
      8840   0.49322468     158.5          158.5          158.5          0.096516695    0.070358875    0.046709789    0.17248142     0.49322468   
      8860   0.95210089     158.5          158.5          158.5         -0.174407      -0.1952585     -0.23271371    -0.095248791    0.95210089   
      8880   0.24029592     158.5          158.5          158.5          0.021373912    0.0096621632   0.036914506    0.017545068    0.24029592   
      8900   0.33965972     158.5          158.5          158.5         -0.026484286    0.01323899    -0.076523034   -0.016168816    0.33965972   
      8920   1.0611045      158.5          158.5          158.5         -0.1120346     -0.075167865   -0.2667141      0.0057781558   1.0611045    
      8940   0.81410951     158.5          158.5          158.5          0.11647456     0.15772064     0.10536278     0.086340276    0.81410951   
      8960   1.2721632      158.5          158.5          158.5         -0.10367638    -0.048065969   -0.12403778    -0.13892539     1.2721632    
      8980   0.59403723     158.5          158.5          158.5          0.035204916    0.10866516    -0.053734058    0.050683641    0.59403723   
      9000   0.26833787     158.5          158.5          158.5          0.18011226     0.23342077     0.15850453     0.14841148     0.26833787   
      9020   1.6001226      158.5          158.5          158.5         -0.18663715    -0.20807277    -0.12870573    -0.22313295     1.6001226    
      9040   0.78011294     158.5          158.5          158.5          0.15869623     0.17205062     0.17183201     0.13220605     0.78011294   
      9060   0.78361929     158.5          158.5          158.5          0.17734106     0.21551714     0.13942722     0.17707881     0.78361929   
      9080   1.4776949      158.5          158.5          158.5         -0.025303618   -0.13411152    -0.060935677    0.11913635     1.4776949    
      9100   0.36331976     158.5          158.5          158.5          0.1884849      0.12603913     0.13805659     0.30135899     0.36331976   
      9120   0.35287322     158.5          158.5          158.5         -0.013405406    0.076051654    0.024034754   -0.14030262     0.35287322   
      9140   0.66373717     158.5          158.5          158.5         -0.020848707   -0.069603975   -0.02190486     0.028962715    0.66373717   
      9160   0.46628906     158.5          158.5          158.5          0.12978123     0.094324495    0.045909668    0.24910954     0.46628906   
      9180   0.82710003     158.5          158.5          158.5         -0.09277708     0.0042997106  -0.0039414445  -0.27868951     0.82710003   
      9200   0.4387049      158.5          158.5          158.5          0.015280996    0.076735365    0.022644309   -0.053536687    0.4387049    
      9220   0.11375503     158.5          158.5          158.5         -0.031992603   -0.024610005    0.011595612   -0.082963416    0.11375503   
      9240   0.74088405     158.5          158.5          158.5         -0.14181446    -0.021613543    0.017746105   -0.42157595     0.74088405   
      9260   0.59330602     158.5          158.5          158.5          0.085396294    0.20964722     0.025595049    0.020946615    0.59330602   
[...]
     97720   0.18801108     158.5          158.5          158.5         -0.11216678     0.090330137   -0.0088860704  -0.41794442     0.18801108   
     97740   0.62411598     158.5          158.5          158.5          0.015241292    0.09906771     0.038516091   -0.091859926    0.62411598   
     97760   0.66940086     158.5          158.5          158.5         -0.093775999   -0.16558601     0.018603096   -0.13434509     0.66940086   
     97780   0.54202238     158.5          158.5          158.5         -0.10648048     0.059959424   -0.020026731   -0.35937412     0.54202238   
     97800   0.58904491     158.5          158.5          158.5         -0.15384954     0.094446711   -0.040669049   -0.51532629     0.58904491   
     97820   0.11120708     158.5          158.5          158.5         -0.019416942   -0.07875481     0.029605175   -0.0091011908   0.11120708   
     97840   0.34720437     158.5          158.5          158.5          0.14977823     0.0058258519   0.054443302    0.38906553     0.34720437   
     97860   0.79788689     158.5          158.5          158.5          0.0080171427   0.066355601    0.051005313   -0.093309486    0.79788689   
     97880   1.2852926      158.5          158.5          158.5          0.0084209852   0.13720643     0.081314297   -0.19325777     1.2852926    
     97900   1.328737       158.5          158.5          158.5          0.20598682     0.13556251     0.10396672     0.37843124     1.328737     
     97920   0.95573065     158.5          158.5          158.5          0.2958406      0.096365129    0.12974302     0.66141365     0.95573065   
     97940   0.44162914     158.5          158.5          158.5          0.26076214     0.21793521     0.16096205     0.40338917     0.44162914   
     97960   1.5244155      158.5          158.5          158.5         -0.080799932    0.20021502    -0.0013799357  -0.44123488     1.5244155    
     97980   0.52684053     158.5          158.5          158.5          0.04454738     0.15420212     0.030271057   -0.050831035    0.52684053   
     98000   1.0652211      158.5          158.5          158.5          0.25638128     0.12593535     0.14938309     0.49382541     1.0652211    
     98020   1.1362048      158.5          158.5          158.5          0.0672191      0.06245755    -0.12486625     0.264066       1.1362048    
     98040   0.58958081     158.5          158.5          158.5         -0.10696368     0.019301639   -0.047447077   -0.29274559     0.58958081   
     98060   0.45784454     158.5          158.5          158.5         -0.10249216    -0.0016079383   0.17762771    -0.48349624     0.45784454   
     98080   0.21248023     158.5          158.5          158.5         -0.063045717    0.042438763   -0.076816569   -0.15475935     0.21248023   
     98100   0.64219246     158.5          158.5          158.5          0.00076618936  0.085526326   -0.10927372     0.026045966    0.64219246   
     98120   0.83392826     158.5          158.5          158.5         -0.106107      -0.020258589    0.1198256     -0.41788801     0.83392826   
     98140   0.62795316     158.5          158.5          158.5         -0.1685302     -0.04180468     0.070652639   -0.53443856     0.62795316   
     98160   0.37332346     158.5          158.5          158.5         -0.053217625    0.029596091   -0.099150948   -0.090098017    0.37332346   
     98180   0.4294551      158.5          158.5          158.5          0.028308293    0.081552559    0.030677265   -0.027304943    0.4294551    
     98200   0.30138162     158.5          158.5          158.5          0.039647476    0.073204191    0.13491882    -0.089180579    0.30138162   
     98220   0.63606633     158.5          158.5          158.5         -0.017640827   -0.061441133   -0.12029306     0.12881171     0.63606633   
     98240   0.82538768     158.5          158.5          158.5          0.015597194   -0.006605308   -0.1230955      0.17649239     0.82538768   
     98260   0.72524309     158.5          158.5          158.5          0.22632481     0.22296663     0.15914204     0.29686576     0.72524309   
     98280   0.3360517      158.5          158.5          158.5          0.21259778     0.080476693    0.003749092    0.55356756     0.3360517    
     98300   0.42980841     158.5          158.5          158.5          0.0097049971  -0.14314808    -0.15378388     0.32604696     0.42980841   
     98320   0.86674744     158.5          158.5          158.5          0.074773033    0.062988317    0.051832087    0.10949869     0.86674744   
     98340   1.1573175      158.5          158.5          158.5          0.18729753     0.084412573    0.1123403      0.36513972     1.1573175    
     98360   1.3300499      158.5          158.5          158.5          0.19370127     0.017707157    0.090272461    0.47312421     1.3300499    
     98380   0.5616352      158.5          158.5          158.5          0.052214362    0.22384304     0.016094835   -0.083294793    0.5616352    
     98400   1.2504812      158.5          158.5          158.5         -0.20288439    -0.041862768   -0.17636942    -0.39042099     1.2504812    
     98420   0.40785368     158.5          158.5          158.5         -0.12287001    -0.18310508    -0.06518842    -0.12031654     0.40785368   
     98440   0.71268782     158.5          158.5          158.5          0.0080690114   0.31599805    -0.068329685   -0.22346133     0.71268782   
     98460   1.1368923      158.5          158.5          158.5         -0.11569839     0.28050936    -0.28957554    -0.33802898     1.1368923    
     98480   0.92531303     158.5          158.5          158.5         -0.17358193    -0.15312478    -0.13940509    -0.22821594     0.92531303   
     98500   0.54438993     158.5          158.5          158.5         -0.16153549    -0.17549013    -0.17646709    -0.13264924     0.54438993   
     98520   0.26530918     158.5          158.5          158.5         -0.00012462691  0.24836957    -0.18679414    -0.061949318    0.26530918   
     98540   0.12934383     158.5          158.5          158.5          0.076775782    0.13247791     0.064095899    0.033753542    0.12934383   
     98560   0.54083198     158.5          158.5          158.5         -0.045076235   -0.24616797     0.08006462     0.030874646    0.54083198   
     98580   0.66094648     158.5          158.5          158.5          0.030312684    0.014442761    0.099199329   -0.022704039    0.66094648   
     98600   0.4649644      158.5          158.5          158.5          0.16994571     0.18455458     0.30887034     0.016412212    0.4649644    
     98620   0.59275858     158.5          158.5          158.5          0.15148199    -0.046213216    0.44461624     0.056042962    0.59275858   
     98640   0.21646641     158.5          158.5          158.5          0.14914654     0.10078238     0.29877721     0.047880015    0.21646641   
     98660   0.50960696     158.5          158.5          158.5          0.027173245   -0.083879879    0.12850736     0.036892255    0.50960696   
     98680   0.74866309     158.5          158.5          158.5          0.058081296   -0.17791983     0.33107333     0.021090395    0.74866309   
     98700   0.84874602     158.5          158.5          158.5          0.20113522     0.29887422     0.28602381     0.018507648    0.84874602   
     98720   0.673702       158.5          158.5          158.5          0.04215065     0.27902956    -0.16461579     0.012038179    0.673702     
     98740   0.48448522     158.5          158.5          158.5         -0.15677882    -0.29570972    -0.2155433      0.040916563    0.48448522   
     98760   0.37978762     158.5          158.5          158.5         -0.17789403    -0.25984909    -0.31289014     0.03905715     0.37978762   
     98780   1.0301445      158.5          158.5          158.5         -0.10555916     0.24637221    -0.50428618    -0.058763517    1.0301445    
     98800   1.3273144      158.5          158.5          158.5          0.014756336    0.33265662    -0.1516        -0.13678761     1.3273144    
     98820   0.9791037      158.5          158.5          158.5         -0.16166634    -0.22783209    -0.11490271    -0.14226423     0.9791037    
     98840   1.3120378      158.5          158.5          158.5         -0.21125819    -0.1707852     -0.40431077    -0.058678609    1.3120378    
     98860   0.39580792     158.5          158.5          158.5         -0.0072908038   0.13230408    -0.1212153     -0.032961193    0.39580792   
     98880   0.42822302     158.5          158.5          158.5          0.057705403    0.046772444    0.13436024    -0.0080164723   0.42822302   
     98900   0.54607999     158.5          158.5          158.5          0.098108344    0.13976605     0.096582156    0.057976825    0.54607999   
     98920   1.0655052      158.5          158.5          158.5          0.013497504   -0.037457344    0.022170979    0.055778879    1.0655052    
     98940   0.88843299     158.5          158.5          158.5          0.013952096   -0.16537926     0.011039601    0.19619595     0.88843299   
     98960   0.57476212     158.5          158.5          158.5          0.23741646     0.24043424     0.15086257     0.32095258     0.57476212   
     98980   0.24200407     158.5          158.5          158.5          0.17691412     0.2462558      0.1244103      0.16007625     0.24200407   
     99000   0.39196804     158.5          158.5          158.5         -0.0064969886  -0.16401994    -0.065033495    0.20956247     0.39196804   
     99020   0.52671906     158.5          158.5          158.5          0.019155363   -0.12468594    -0.069100093    0.25125212     0.52671906   
     99040   0.46373685     158.5          158.5          158.5          0.088629255    0.19696484     0.06222719     0.0066957315   0.46373685   
     99060   0.49815031     158.5          158.5          158.5          0.10268007     0.17761623     0.074656211    0.055767775    0.49815031   
     99080   0.24117825     158.5          158.5          158.5         -0.044590613   -0.12044311    -0.058908247    0.045579519    0.24117825   
     99100   0.19354352     158.5          158.5          158.5         -0.15277471    -0.1573169     -0.021708458   -0.27929877     0.19354352   
     99120   0.23566134     158.5          158.5          158.5         -0.042918553    0.030624655    0.078188729   -0.23756904     0.23566134   
     99140   0.48686482     158.5          158.5          158.5         -0.0011264358   0.081921748   -0.01797141    -0.067329645    0.48686482   
     99160   0.37249602     158.5          158.5          158.5         -0.052344405    0.021680961    0.0014522742  -0.18016645     0.37249602   
     99180   0.4299591      158.5          158.5          158.5         -0.10123551    -0.076545928    0.084908436   -0.31206904     0.4299591    
     99200   0.12159029     158.5          158.5          158.5         -0.13625626    -0.14486834    -0.071251395   -0.19264904     0.12159029   
     99220   0.28036311     158.5          158.5          158.5          0.018566759    0.058060799   -0.031123119    0.028762596    0.28036311   
     99240   0.64872813     158.5          158.5          158.5          0.10145538     0.18959757     0.14887241    -0.034103849    0.64872813   
     99260   0.57591128     158.5          158.5          158.5         -0.028110662   -0.025042471   -0.042759573   -0.016529942    0.57591128   
     99280   0.99598434     158.5          158.5          158.5         -0.018756442   -0.10054495    -0.14482724     0.18910286     0.99598434   
     99300   0.61293666     158.5          158.5          158.5          0.17207462     0.20873038     0.10617554     0.20131793     0.61293666   
     99320   0.38486828     158.5          158.5          158.5          0.23628791     0.29123393     0.020805787    0.396824       0.38486828   
     99340   0.53699956     158.5          158.5          158.5          0.15723931     0.18926639    -0.16303855     0.44549008     0.53699956   
     99360   1.167082       158.5          158.5          158.5          0.0039672799  -0.038324749    0.011008209    0.03921838     1.167082     
     99380   1.2029012      158.5          158.5          158.5          0.11660993     0.010780282    0.13445094     0.20459858     1.2029012    
     99400   1.2599597      158.5          158.5          158.5          0.25038297     0.32021685    -0.072689768    0.50362184     1.2599597    
     99420   0.34993078     158.5          158.5          158.5          0.051979484    0.11085272    -0.087832346    0.13291808     0.34993078   
     99440   0.83018152     158.5          158.5          158.5         -0.16685776    -0.13439668     0.12919786    -0.49537446     0.83018152   
     99460   0.60593314     158.5          158.5          158.5         -0.16841664    -0.098138271    0.033337513   -0.44044917     0.60593314   
     99480   0.7512934      158.5          158.5          158.5         -0.072081637   -0.12547539    -0.10566247     0.014892951    0.7512934    
     99500   1.1360002      158.5          158.5          158.5          0.031899191   -0.14771826    -0.0094738971   0.25288973     1.1360002    
     99520   0.83391652     158.5          158.5          158.5         -0.16366178    -0.16528823    -0.0097929373  -0.31590417     0.83391652   
     99540   0.67620344     158.5          158.5          158.5         -0.25822395    -0.1331027     -0.0034405244  -0.63812863     0.67620344   
     99560   0.10840592     158.5          158.5          158.5         -0.0035719584  -0.043051179    0.016791638    0.015543666    0.10840592   
     99580   0.34881379     158.5          158.5          158.5          0.066296943   -0.063129172   -0.0016625462   0.26368255     0.34881379   
     99600   0.57723877     158.5          158.5          158.5          0.032659408    0.074835215    0.019366126    0.0037768818   0.57723877   
     99620   0.78501652     158.5          158.5          158.5          0.014517291    0.13279569     0.045603783   -0.1348476      0.78501652   
     99640   0.49065528     158.5          158.5          158.5          0.065311662    0.082366999    0.051434949    0.062133039    0.49065528   
     99660   0.4590477      158.5          158.5          158.5          0.24333077     0.18845992     0.081926542    0.45960583     0.4590477    
     99680   0.33103181     158.5          158.5          158.5          0.17560232     0.16110737     0.075120611    0.29057898     0.33103181   
     99700   0.54286489     158.5          158.5          158.5          0.025662576    0.16675913    -0.0086702831  -0.081101115    0.54286489   
     99720   0.77979924     158.5          158.5          158.5          0.081373631    0.20234035     0.0048405534   0.036939993    0.77979924   
     99740   0.92713179     158.5          158.5          158.5          0.10084691    -0.014370531    0.047979064    0.26893219     0.92713179   
     99760   0.66457658     158.5          158.5          158.5          0.13206406     0.033642242    0.054869845    0.30768008     0.66457658   
     99780   0.23212943     158.5          158.5          158.5         -0.066063601    0.10138211     0.032683847   -0.33225676     0.23212943   
     99800   0.91578254     158.5          158.5          158.5         -0.35292505    -0.083763356   -0.13422504    -0.84078676     0.91578254   
     99820   1.0077789      158.5          158.5          158.5         -0.073596451    0.098882544    0.014037005   -0.3337089      1.0077789    
     99840   1.8145045      158.5          158.5          158.5          0.038745412    0.096237476    0.16125226    -0.1412535      1.8145045    
     99860   1.0779388      158.5          158.5          158.5         -0.11999984    -0.079040456   -0.077106582   -0.20385247     1.0779388    
     99880   1.305013       158.5          158.5          158.5         -0.21817817     0.042625217   -0.081768489   -0.61539123     1.305013     
     99900   0.71466336     158.5          158.5          158.5         -0.16428614     0.11712052     0.033441575   -0.64342052     0.71466336   
     99920   0.28323749     158.5          158.5          158.5          0.12895343     0.08835004     0.072435389    0.22607487     0.28323749   
     99940   0.63538635     158.5          158.5          158.5          0.15618085     0.054730058    0.032238929    0.38157356     0.63538635   
     99960   1.005345       158.5          158.5          158.5         -0.0053901988   0.051562017    0.0033265535  -0.071059167    1.005345     
     99980   0.93895587     158.5          158.5          158.5          0.059100459    0.046150286   -0.1404433      0.27159439     0.93895587   
    100000   0.62891574     158.5          158.5          158.5          0.1827679      0.087298249   -0.14551221     0.60651766     0.62891574   
    100020   0.38204622     158.5          158.5          158.5          0.24054261     0.1164528      0.25908236     0.34609268     0.38204622   
    100040   0.39339107     158.5          158.5          158.5          0.11332112     0.062166606    0.067927506    0.20986923     0.39339107   
    100060   0.96473483     158.5          158.5          158.5         -0.096501009    0.042710348   -0.49748768     0.16527431     0.96473483   
    100080   0.51835912     158.5          158.5          158.5          0.084306316    0.032315562    0.088343287    0.1322601      0.51835912   
    100100   0.96882736     158.5          158.5          158.5          0.17163256     0.022474607    0.45730495     0.035118125    0.96882736   
    100120   0.39370522     158.5          158.5          158.5         -0.035088164    0.055710984   -0.12811621    -0.032859262    0.39370522   
    100124   0.22578454     158.5          158.5          158.5          0.066519992    0.087150627   -0.031333853    0.1437432      0.22578454   
Loop time of 1.85842 on 1 procs for 100000 steps with 4 atoms

Performance: 4649.113 ns/day, 0.005 hours/ns, 53809.178 timesteps/s, 215.237 katom-step/s
65.4% CPU use with 1 MPI tasks x no OpenMP threads

MPI task timing breakdown:
Section |  min time  |  avg time  |  max time  |%varavg| %total
---------------------------------------------------------------
Pair    | 0.020071   | 0.020071   | 0.020071   |   0.0 |  1.08
Bond    | 0.050656   | 0.050656   | 0.050656   |   0.0 |  2.73
Neigh   | 0.012147   | 0.012147   | 0.012147   |   0.0 |  0.65
Comm    | 0.024496   | 0.024496   | 0.024496   |   0.0 |  1.32
Output  | 0.41147    | 0.41147    | 0.41147    |   0.0 | 22.14
Modify  | 1.2961     | 1.2961     | 1.2961     |   0.0 | 69.74
Other   |            | 0.04347    |            |       |  2.34

Nlocal:              4 ave           4 max           4 min
Histogram: 1 0 0 0 0 0 0 0 0 0
Nghost:              0 ave           0 max           0 min
Histogram: 1 0 0 0 0 0 0 0 0 0
Neighs:              1 ave           1 max           1 min
Histogram: 1 0 0 0 0 0 0 0 0 0
FullNghs:            0 ave           0 max           0 min
Histogram: 1 0 0 0 0 0 0 0 0 0

Total # of neighbors = 1
Ave neighs/atom = 0.25
Ave special neighs/atom = 3
Neighbor list builds = 676
Dangerous builds = 0

# Access cumulative reaction counts after the simulation
variable react1_count equal f_3[1]
variable react2_count equal f_3[2]
variable react3_count equal f_3[3]
variable react4_count equal f_3[4]

# Output cumulative reaction counts
print "Cumulative reaction count for reac1to2: ${react1_count}"
Cumulative reaction count for reac1to2: 0
print "Cumulative reaction count for reac2to3: ${react2_count}"
Cumulative reaction count for reac2to3: 0
print "Cumulative reaction count for reac3to2: ${react3_count}"
Cumulative reaction count for reac3to2: 0
print "Cumulative reaction count for reac2to1: ${react4_count}"
Cumulative reaction count for reac2to1: 0

#####################################################
print "All done"
All done
Total wall time: 0:00:02
