LAMMPS (2 Aug 2023)
OMP_NUM_THREADS environment is not set. Defaulting to 1 thread. (src/comm.cpp:98)
  using 1 OpenMP thread(s) per MPI task
# VARIABLES
variable fname index InitialFile.txt
variable simname index InitialFile
variable lj_epsilon equal 1.0
variable lj_sigma equal 2.0

# Initialization
units		real
boundary	    p p p
atom_style	molecular
log 		log.${simname}.txt
log 		log.InitialFile.txt
