LAMMPS Description

     756  atoms
     729  bonds
     1026  angles
     648  dihedrals
     0  impropers

     3  atom types
     2  bond types
     2  angle types
     2  dihedral types
     0  improper types

  0 180.0 xlo xhi
  0 180.0 ylo yhi
  0 180.0 zlo zhi

Masses

1 13.0  # CA
2 50.0  # HR
3 50.0  # PR

Atoms  # full

1 1 2 0.0 0.0 1.0 0.0
2 1 3 0.0 0.0 4.4 0.0
3 1 1 0.0 3.2 -1.0 1.2246467991473532e-16
4 1 3 0.0 3.2 -4.4 5.388445916248355e-16
5 1 1 0.0 6.4 1.0 0.0
6 1 2 0.0 6.4 4.4 0.0
7 1 1 0.0 9.6 -1.0 1.2246467991473532e-16
8 1 2 0.0 9.6 -4.4 5.388445916248355e-16
9 1 1 0.0 12.8 1.0 0.0
10 1 2 0.0 12.8 4.4 0.0
11 1 1 0.0 16.0 -1.0 1.2246467991473532e-16
12 1 2 0.0 16.0 -4.4 5.388445916248355e-16
13 1 1 0.0 19.2 1.0 0.0
14 1 3 0.0 19.2 4.4 0.0
15 1 1 0.0 22.4 -1.0 1.2246467991473532e-16
16 1 3 0.0 22.4 -4.4 5.388445916248355e-16
17 1 1 0.0 25.6 1.0 0.0
18 1 3 0.0 25.6 4.4 0.0
19 1 1 0.0 28.8 -1.0 1.2246467991473532e-16
20 1 2 0.0 28.8 -4.4 5.388445916248355e-16
21 1 1 0.0 32.0 1.0 0.0
22 1 2 0.0 32.0 4.4 0.0
23 1 1 0.0 35.2 -1.0 1.2246467991473532e-16
24 1 2 0.0 35.2 -4.4 5.388445916248355e-16
25 1 1 0.0 38.4 1.0 0.0
26 1 3 0.0 38.4 4.4 0.0
27 1 1 0.0 41.6 -1.0 1.2246467991473532e-16
28 1 3 0.0 41.6 -4.4 5.388445916248355e-16
29 2 1 0.0 0.0 21.0 60.0
30 2 3 0.0 0.0 24.4 60.0
31 2 1 0.0 3.2 19.0 60.0
32 2 3 0.0 3.2 15.6 60.0
33 2 1 0.0 6.4 21.0 60.0
34 2 2 0.0 6.4 24.4 60.0
35 2 1 0.0 9.6 19.0 60.0
36 2 2 0.0 9.6 15.6 60.0
37 2 1 0.0 12.8 21.0 60.0
38 2 2 0.0 12.8 24.4 60.0
39 2 1 0.0 16.0 19.0 60.0
40 2 2 0.0 16.0 15.6 60.0
41 2 1 0.0 19.2 21.0 60.0
42 2 3 0.0 19.2 24.4 60.0
43 2 1 0.0 22.4 19.0 60.0
44 2 3 0.0 22.4 15.6 60.0
45 2 1 0.0 25.6 21.0 60.0
46 2 3 0.0 25.6 24.4 60.0
47 2 1 0.0 28.8 19.0 60.0
48 2 2 0.0 28.8 15.6 60.0
49 2 1 0.0 32.0 21.0 60.0
50 2 2 0.0 32.0 24.4 60.0
51 2 1 0.0 35.2 19.0 60.0
52 2 2 0.0 35.2 15.6 60.0
53 2 1 0.0 38.4 21.0 60.0
54 2 3 0.0 38.4 24.4 60.0
55 2 1 0.0 41.6 19.0 60.0
56 2 3 0.0 41.6 15.6 60.0
57 3 1 0.0 0.0 1.0 120.0
58 3 3 0.0 0.0 4.4 120.0
59 3 1 0.0 3.2 -1.0 120.0
60 3 3 0.0 3.2 -4.4 120.0
61 3 1 0.0 6.4 1.0 120.0
62 3 2 0.0 6.4 4.4 120.0
63 3 1 0.0 9.6 -1.0 120.0
64 3 2 0.0 9.6 -4.4 120.0
65 3 1 0.0 12.8 1.0 120.0
66 3 2 0.0 12.8 4.4 120.0
67 3 1 0.0 16.0 -1.0 120.0
68 3 2 0.0 16.0 -4.4 120.0
69 3 1 0.0 19.2 1.0 120.0
70 3 3 0.0 19.2 4.4 120.0
71 3 1 0.0 22.4 -1.0 120.0
72 3 3 0.0 22.4 -4.4 120.0
73 3 1 0.0 25.6 1.0 120.0
74 3 3 0.0 25.6 4.4 120.0
75 3 1 0.0 28.8 -1.0 120.0
76 3 2 0.0 28.8 -4.4 120.0
77 3 1 0.0 32.0 1.0 120.0
78 3 2 0.0 32.0 4.4 120.0
79 3 1 0.0 35.2 -1.0 120.0
80 3 2 0.0 35.2 -4.4 120.0
81 3 1 0.0 38.4 1.0 120.0
82 3 3 0.0 38.4 4.4 120.0
83 3 1 0.0 41.6 -1.0 120.0
84 3 3 0.0 41.6 -4.4 120.0
85 4 1 0.0 20.0 61.0 0.0
86 4 3 0.0 20.0 64.4 0.0
87 4 1 0.0 23.2 59.0 1.2246467991473532e-16
88 4 3 0.0 23.2 55.6 5.388445916248355e-16
89 4 1 0.0 26.4 61.0 0.0
90 4 2 0.0 26.4 64.4 0.0
91 4 1 0.0 29.6 59.0 1.2246467991473532e-16
92 4 2 0.0 29.6 55.6 5.388445916248355e-16
93 4 1 0.0 32.8 61.0 0.0
94 4 2 0.0 32.8 64.4 0.0
95 4 1 0.0 36.0 59.0 1.2246467991473532e-16
96 4 2 0.0 36.0 55.6 5.388445916248355e-16
97 4 1 0.0 39.2 61.0 0.0
98 4 3 0.0 39.2 64.4 0.0
99 4 1 0.0 42.4 59.0 1.2246467991473532e-16
100 4 3 0.0 42.4 55.6 5.388445916248355e-16
101 4 1 0.0 45.6 61.0 0.0
102 4 3 0.0 45.6 64.4 0.0
103 4 1 0.0 48.8 59.0 1.2246467991473532e-16
104 4 2 0.0 48.8 55.6 5.388445916248355e-16
105 4 1 0.0 52.0 61.0 0.0
106 4 2 0.0 52.0 64.4 0.0
107 4 1 0.0 55.2 59.0 1.2246467991473532e-16
108 4 2 0.0 55.2 55.6 5.388445916248355e-16
109 4 1 0.0 58.4 61.0 0.0
110 4 3 0.0 58.4 64.4 0.0
111 4 1 0.0 61.6 59.0 1.2246467991473532e-16
112 4 3 0.0 61.6 55.6 5.388445916248355e-16
113 5 1 0.0 20.0 81.0 60.0
114 5 3 0.0 20.0 84.4 60.0
115 5 1 0.0 23.2 79.0 60.0
116 5 3 0.0 23.2 75.6 60.0
117 5 1 0.0 26.4 81.0 60.0
118 5 2 0.0 26.4 84.4 60.0
119 5 1 0.0 29.6 79.0 60.0
120 5 2 0.0 29.6 75.6 60.0
121 5 1 0.0 32.8 81.0 60.0
122 5 2 0.0 32.8 84.4 60.0
123 5 1 0.0 36.0 79.0 60.0
124 5 2 0.0 36.0 75.6 60.0
125 5 1 0.0 39.2 81.0 60.0
126 5 3 0.0 39.2 84.4 60.0
127 5 1 0.0 42.4 79.0 60.0
128 5 3 0.0 42.4 75.6 60.0
129 5 1 0.0 45.6 81.0 60.0
130 5 3 0.0 45.6 84.4 60.0
131 5 1 0.0 48.8 79.0 60.0
132 5 2 0.0 48.8 75.6 60.0
133 5 1 0.0 52.0 81.0 60.0
134 5 2 0.0 52.0 84.4 60.0
135 5 1 0.0 55.2 79.0 60.0
136 5 2 0.0 55.2 75.6 60.0
137 5 1 0.0 58.4 81.0 60.0
138 5 3 0.0 58.4 84.4 60.0
139 5 1 0.0 61.6 79.0 60.0
140 5 3 0.0 61.6 75.6 60.0
141 6 1 0.0 20.0 61.0 120.0
142 6 3 0.0 20.0 64.4 120.0
143 6 1 0.0 23.2 59.0 120.0
144 6 3 0.0 23.2 55.6 120.0
145 6 1 0.0 26.4 61.0 120.0
146 6 2 0.0 26.4 64.4 120.0
147 6 1 0.0 29.6 59.0 120.0
148 6 2 0.0 29.6 55.6 120.0
149 6 1 0.0 32.8 61.0 120.0
150 6 2 0.0 32.8 64.4 120.0
151 6 1 0.0 36.0 59.0 120.0
152 6 2 0.0 36.0 55.6 120.0
153 6 1 0.0 39.2 61.0 120.0
154 6 3 0.0 39.2 64.4 120.0
155 6 1 0.0 42.4 59.0 120.0
156 6 3 0.0 42.4 55.6 120.0
157 6 1 0.0 45.6 61.0 120.0
158 6 3 0.0 45.6 64.4 120.0
159 6 1 0.0 48.8 59.0 120.0
160 6 2 0.0 48.8 55.6 120.0
161 6 1 0.0 52.0 61.0 120.0
162 6 2 0.0 52.0 64.4 120.0
163 6 1 0.0 55.2 59.0 120.0
164 6 2 0.0 55.2 55.6 120.0
165 6 1 0.0 58.4 61.0 120.0
166 6 3 0.0 58.4 64.4 120.0
167 6 1 0.0 61.6 59.0 120.0
168 6 3 0.0 61.6 55.6 120.0
169 7 1 0.0 0.0 121.0 0.0
170 7 3 0.0 0.0 124.4 0.0
171 7 1 0.0 3.2 119.0 1.2246467991473532e-16
172 7 3 0.0 3.2 115.6 5.388445916248355e-16
173 7 1 0.0 6.4 121.0 0.0
174 7 2 0.0 6.4 124.4 0.0
175 7 1 0.0 9.6 119.0 1.2246467991473532e-16
176 7 2 0.0 9.6 115.6 5.388445916248355e-16
177 7 1 0.0 12.8 121.0 0.0
178 7 2 0.0 12.8 124.4 0.0
179 7 1 0.0 16.0 119.0 1.2246467991473532e-16
180 7 2 0.0 16.0 115.6 5.388445916248355e-16
181 7 1 0.0 19.2 121.0 0.0
182 7 3 0.0 19.2 124.4 0.0
183 7 1 0.0 22.4 119.0 1.2246467991473532e-16
184 7 3 0.0 22.4 115.6 5.388445916248355e-16
185 7 1 0.0 25.6 121.0 0.0
186 7 3 0.0 25.6 124.4 0.0
187 7 1 0.0 28.8 119.0 1.2246467991473532e-16
188 7 2 0.0 28.8 115.6 5.388445916248355e-16
189 7 1 0.0 32.0 121.0 0.0
190 7 2 0.0 32.0 124.4 0.0
191 7 1 0.0 35.2 119.0 1.2246467991473532e-16
192 7 2 0.0 35.2 115.6 5.388445916248355e-16
193 7 1 0.0 38.4 121.0 0.0
194 7 3 0.0 38.4 124.4 0.0
195 7 1 0.0 41.6 119.0 1.2246467991473532e-16
196 7 3 0.0 41.6 115.6 5.388445916248355e-16
197 8 1 0.0 0.0 141.0 60.0
198 8 3 0.0 0.0 144.4 60.0
199 8 1 0.0 3.2 139.0 60.0
200 8 3 0.0 3.2 135.6 60.0
201 8 1 0.0 6.4 141.0 60.0
202 8 2 0.0 6.4 144.4 60.0
203 8 1 0.0 9.6 139.0 60.0
204 8 2 0.0 9.6 135.6 60.0
205 8 1 0.0 12.8 141.0 60.0
206 8 2 0.0 12.8 144.4 60.0
207 8 1 0.0 16.0 139.0 60.0
208 8 2 0.0 16.0 135.6 60.0
209 8 1 0.0 19.2 141.0 60.0
210 8 3 0.0 19.2 144.4 60.0
211 8 1 0.0 22.4 139.0 60.0
212 8 3 0.0 22.4 135.6 60.0
213 8 1 0.0 25.6 141.0 60.0
214 8 3 0.0 25.6 144.4 60.0
215 8 1 0.0 28.8 139.0 60.0
216 8 2 0.0 28.8 135.6 60.0
217 8 1 0.0 32.0 141.0 60.0
218 8 2 0.0 32.0 144.4 60.0
219 8 1 0.0 35.2 139.0 60.0
220 8 2 0.0 35.2 135.6 60.0
221 8 1 0.0 38.4 141.0 60.0
222 8 3 0.0 38.4 144.4 60.0
223 8 1 0.0 41.6 139.0 60.0
224 8 3 0.0 41.6 135.6 60.0
225 9 1 0.0 0.0 121.0 120.0
226 9 3 0.0 0.0 124.4 120.0
227 9 1 0.0 3.2 119.0 120.0
228 9 3 0.0 3.2 115.6 120.0
229 9 1 0.0 6.4 121.0 120.0
230 9 2 0.0 6.4 124.4 120.0
231 9 1 0.0 9.6 119.0 120.0
232 9 2 0.0 9.6 115.6 120.0
233 9 1 0.0 12.8 121.0 120.0
234 9 2 0.0 12.8 124.4 120.0
235 9 1 0.0 16.0 119.0 120.0
236 9 2 0.0 16.0 115.6 120.0
237 9 1 0.0 19.2 121.0 120.0
238 9 3 0.0 19.2 124.4 120.0
239 9 1 0.0 22.4 119.0 120.0
240 9 3 0.0 22.4 115.6 120.0
241 9 1 0.0 25.6 121.0 120.0
242 9 3 0.0 25.6 124.4 120.0
243 9 1 0.0 28.8 119.0 120.0
244 9 2 0.0 28.8 115.6 120.0
245 9 1 0.0 32.0 121.0 120.0
246 9 2 0.0 32.0 124.4 120.0
247 9 1 0.0 35.2 119.0 120.0
248 9 2 0.0 35.2 115.6 120.0
249 9 1 0.0 38.4 121.0 120.0
250 9 3 0.0 38.4 124.4 120.0
251 9 1 0.0 41.6 119.0 120.0
252 9 3 0.0 41.6 115.6 120.0
253 10 1 0.0 60.0 1.0 20.0
254 10 3 0.0 60.0 4.4 20.0
255 10 1 0.0 63.2 -1.0 20.0
256 10 3 0.0 63.2 -4.4 20.0
257 10 1 0.0 66.4 1.0 20.0
258 10 2 0.0 66.4 4.4 20.0
259 10 1 0.0 69.6 -1.0 20.0
260 10 2 0.0 69.6 -4.4 20.0
261 10 1 0.0 72.8 1.0 20.0
262 10 2 0.0 72.8 4.4 20.0
263 10 1 0.0 76.0 -1.0 20.0
264 10 2 0.0 76.0 -4.4 20.0
265 10 1 0.0 79.2 1.0 20.0
266 10 3 0.0 79.2 4.4 20.0
267 10 1 0.0 82.4 -1.0 20.0
268 10 3 0.0 82.4 -4.4 20.0
269 10 1 0.0 85.6 1.0 20.0
270 10 3 0.0 85.6 4.4 20.0
271 10 1 0.0 88.8 -1.0 20.0
272 10 2 0.0 88.8 -4.4 20.0
273 10 1 0.0 92.0 1.0 20.0
274 10 2 0.0 92.0 4.4 20.0
275 10 1 0.0 95.2 -1.0 20.0
276 10 2 0.0 95.2 -4.4 20.0
277 10 1 0.0 98.4 1.0 20.0
278 10 3 0.0 98.4 4.4 20.0
279 10 1 0.0 101.6 -1.0 20.0
280 10 3 0.0 101.6 -4.4 20.0
281 11 1 0.0 60.0 21.0 80.0
282 11 3 0.0 60.0 24.4 80.0
283 11 1 0.0 63.2 19.0 80.0
284 11 3 0.0 63.2 15.6 80.0
285 11 1 0.0 66.4 21.0 80.0
286 11 2 0.0 66.4 24.4 80.0
287 11 1 0.0 69.6 19.0 80.0
288 11 2 0.0 69.6 15.6 80.0
289 11 1 0.0 72.8 21.0 80.0
290 11 2 0.0 72.8 24.4 80.0
291 11 1 0.0 76.0 19.0 80.0
292 11 2 0.0 76.0 15.6 80.0
293 11 1 0.0 79.2 21.0 80.0
294 11 3 0.0 79.2 24.4 80.0
295 11 1 0.0 82.4 19.0 80.0
296 11 3 0.0 82.4 15.6 80.0
297 11 1 0.0 85.6 21.0 80.0
298 11 3 0.0 85.6 24.4 80.0
299 11 1 0.0 88.8 19.0 80.0
300 11 2 0.0 88.8 15.6 80.0
301 11 1 0.0 92.0 21.0 80.0
302 11 2 0.0 92.0 24.4 80.0
303 11 1 0.0 95.2 19.0 80.0
304 11 2 0.0 95.2 15.6 80.0
305 11 1 0.0 98.4 21.0 80.0
306 11 3 0.0 98.4 24.4 80.0
307 11 1 0.0 101.6 19.0 80.0
308 11 3 0.0 101.6 15.6 80.0
309 12 1 0.0 60.0 1.0 140.0
310 12 3 0.0 60.0 4.4 140.0
311 12 1 0.0 63.2 -1.0 140.0
312 12 3 0.0 63.2 -4.4 140.0
313 12 1 0.0 66.4 1.0 140.0
314 12 2 0.0 66.4 4.4 140.0
315 12 1 0.0 69.6 -1.0 140.0
316 12 2 0.0 69.6 -4.4 140.0
317 12 1 0.0 72.8 1.0 140.0
318 12 2 0.0 72.8 4.4 140.0
319 12 1 0.0 76.0 -1.0 140.0
320 12 2 0.0 76.0 -4.4 140.0
321 12 1 0.0 79.2 1.0 140.0
322 12 3 0.0 79.2 4.4 140.0
323 12 1 0.0 82.4 -1.0 140.0
324 12 3 0.0 82.4 -4.4 140.0
325 12 1 0.0 85.6 1.0 140.0
326 12 3 0.0 85.6 4.4 140.0
327 12 1 0.0 88.8 -1.0 140.0
328 12 2 0.0 88.8 -4.4 140.0
329 12 1 0.0 92.0 1.0 140.0
330 12 2 0.0 92.0 4.4 140.0
331 12 1 0.0 95.2 -1.0 140.0
332 12 2 0.0 95.2 -4.4 140.0
333 12 1 0.0 98.4 1.0 140.0
334 12 3 0.0 98.4 4.4 140.0
335 12 1 0.0 101.6 -1.0 140.0
336 12 3 0.0 101.6 -4.4 140.0
337 13 1 0.0 80.0 61.0 20.0
338 13 3 0.0 80.0 64.4 20.0
339 13 1 0.0 83.2 59.0 20.0
340 13 3 0.0 83.2 55.6 20.0
341 13 1 0.0 86.4 61.0 20.0
342 13 2 0.0 86.4 64.4 20.0
343 13 1 0.0 89.6 59.0 20.0
344 13 2 0.0 89.6 55.6 20.0
345 13 1 0.0 92.8 61.0 20.0
346 13 2 0.0 92.8 64.4 20.0
347 13 1 0.0 96.0 59.0 20.0
348 13 2 0.0 96.0 55.6 20.0
349 13 1 0.0 99.2 61.0 20.0
350 13 3 0.0 99.2 64.4 20.0
351 13 1 0.0 102.4 59.0 20.0
352 13 3 0.0 102.4 55.6 20.0
353 13 1 0.0 105.6 61.0 20.0
354 13 3 0.0 105.6 64.4 20.0
355 13 1 0.0 108.8 59.0 20.0
356 13 2 0.0 108.8 55.6 20.0
357 13 1 0.0 112.0 61.0 20.0
358 13 2 0.0 112.0 64.4 20.0
359 13 1 0.0 115.2 59.0 20.0
360 13 2 0.0 115.2 55.6 20.0
361 13 1 0.0 118.4 61.0 20.0
362 13 3 0.0 118.4 64.4 20.0
363 13 1 0.0 121.6 59.0 20.0
364 13 3 0.0 121.6 55.6 20.0
365 14 1 0.0 80.0 81.0 80.0
366 14 3 0.0 80.0 84.4 80.0
367 14 1 0.0 83.2 79.0 80.0
368 14 3 0.0 83.2 75.6 80.0
369 14 1 0.0 86.4 81.0 80.0
370 14 2 0.0 86.4 84.4 80.0
371 14 1 0.0 89.6 79.0 80.0
372 14 2 0.0 89.6 75.6 80.0
373 14 1 0.0 92.8 81.0 80.0
374 14 2 0.0 92.8 84.4 80.0
375 14 1 0.0 96.0 79.0 80.0
376 14 2 0.0 96.0 75.6 80.0
377 14 1 0.0 99.2 81.0 80.0
378 14 3 0.0 99.2 84.4 80.0
379 14 1 0.0 102.4 79.0 80.0
380 14 3 0.0 102.4 75.6 80.0
381 14 1 0.0 105.6 81.0 80.0
382 14 3 0.0 105.6 84.4 80.0
383 14 1 0.0 108.8 79.0 80.0
384 14 2 0.0 108.8 75.6 80.0
385 14 1 0.0 112.0 81.0 80.0
386 14 2 0.0 112.0 84.4 80.0
387 14 1 0.0 115.2 79.0 80.0
388 14 2 0.0 115.2 75.6 80.0
389 14 1 0.0 118.4 81.0 80.0
390 14 3 0.0 118.4 84.4 80.0
391 14 1 0.0 121.6 79.0 80.0
392 14 3 0.0 121.6 75.6 80.0
393 15 1 0.0 80.0 61.0 140.0
394 15 3 0.0 80.0 64.4 140.0
395 15 1 0.0 83.2 59.0 140.0
396 15 3 0.0 83.2 55.6 140.0
397 15 1 0.0 86.4 61.0 140.0
398 15 2 0.0 86.4 64.4 140.0
399 15 1 0.0 89.6 59.0 140.0
400 15 2 0.0 89.6 55.6 140.0
401 15 1 0.0 92.8 61.0 140.0
402 15 2 0.0 92.8 64.4 140.0
403 15 1 0.0 96.0 59.0 140.0
404 15 2 0.0 96.0 55.6 140.0
405 15 1 0.0 99.2 61.0 140.0
406 15 3 0.0 99.2 64.4 140.0
407 15 1 0.0 102.4 59.0 140.0
408 15 3 0.0 102.4 55.6 140.0
409 15 1 0.0 105.6 61.0 140.0
410 15 3 0.0 105.6 64.4 140.0
411 15 1 0.0 108.8 59.0 140.0
412 15 2 0.0 108.8 55.6 140.0
413 15 1 0.0 112.0 61.0 140.0
414 15 2 0.0 112.0 64.4 140.0
415 15 1 0.0 115.2 59.0 140.0
416 15 2 0.0 115.2 55.6 140.0
417 15 1 0.0 118.4 61.0 140.0
418 15 3 0.0 118.4 64.4 140.0
419 15 1 0.0 121.6 59.0 140.0
420 15 3 0.0 121.6 55.6 140.0
421 16 1 0.0 60.0 121.0 20.0
422 16 3 0.0 60.0 124.4 20.0
423 16 1 0.0 63.2 119.0 20.0
424 16 3 0.0 63.2 115.6 20.0
425 16 1 0.0 66.4 121.0 20.0
426 16 2 0.0 66.4 124.4 20.0
427 16 1 0.0 69.6 119.0 20.0
428 16 2 0.0 69.6 115.6 20.0
429 16 1 0.0 72.8 121.0 20.0
430 16 2 0.0 72.8 124.4 20.0
431 16 1 0.0 76.0 119.0 20.0
432 16 2 0.0 76.0 115.6 20.0
433 16 1 0.0 79.2 121.0 20.0
434 16 3 0.0 79.2 124.4 20.0
435 16 1 0.0 82.4 119.0 20.0
436 16 3 0.0 82.4 115.6 20.0
437 16 1 0.0 85.6 121.0 20.0
438 16 3 0.0 85.6 124.4 20.0
439 16 1 0.0 88.8 119.0 20.0
440 16 2 0.0 88.8 115.6 20.0
441 16 1 0.0 92.0 121.0 20.0
442 16 2 0.0 92.0 124.4 20.0
443 16 1 0.0 95.2 119.0 20.0
444 16 2 0.0 95.2 115.6 20.0
445 16 1 0.0 98.4 121.0 20.0
446 16 3 0.0 98.4 124.4 20.0
447 16 1 0.0 101.6 119.0 20.0
448 16 3 0.0 101.6 115.6 20.0
449 17 1 0.0 60.0 141.0 80.0
450 17 3 0.0 60.0 144.4 80.0
451 17 1 0.0 63.2 139.0 80.0
452 17 3 0.0 63.2 135.6 80.0
453 17 1 0.0 66.4 141.0 80.0
454 17 2 0.0 66.4 144.4 80.0
455 17 1 0.0 69.6 139.0 80.0
456 17 2 0.0 69.6 135.6 80.0
457 17 1 0.0 72.8 141.0 80.0
458 17 2 0.0 72.8 144.4 80.0
459 17 1 0.0 76.0 139.0 80.0
460 17 2 0.0 76.0 135.6 80.0
461 17 1 0.0 79.2 141.0 80.0
462 17 3 0.0 79.2 144.4 80.0
463 17 1 0.0 82.4 139.0 80.0
464 17 3 0.0 82.4 135.6 80.0
465 17 1 0.0 85.6 141.0 80.0
466 17 3 0.0 85.6 144.4 80.0
467 17 1 0.0 88.8 139.0 80.0
468 17 2 0.0 88.8 135.6 80.0
469 17 1 0.0 92.0 141.0 80.0
470 17 2 0.0 92.0 144.4 80.0
471 17 1 0.0 95.2 139.0 80.0
472 17 2 0.0 95.2 135.6 80.0
473 17 1 0.0 98.4 141.0 80.0
474 17 3 0.0 98.4 144.4 80.0
475 17 1 0.0 101.6 139.0 80.0
476 17 3 0.0 101.6 135.6 80.0
477 18 1 0.0 60.0 121.0 140.0
478 18 3 0.0 60.0 124.4 140.0
479 18 1 0.0 63.2 119.0 140.0
480 18 3 0.0 63.2 115.6 140.0
481 18 1 0.0 66.4 121.0 140.0
482 18 2 0.0 66.4 124.4 140.0
483 18 1 0.0 69.6 119.0 140.0
484 18 2 0.0 69.6 115.6 140.0
485 18 1 0.0 72.8 121.0 140.0
486 18 2 0.0 72.8 124.4 140.0
487 18 1 0.0 76.0 119.0 140.0
488 18 2 0.0 76.0 115.6 140.0
489 18 1 0.0 79.2 121.0 140.0
490 18 3 0.0 79.2 124.4 140.0
491 18 1 0.0 82.4 119.0 140.0
492 18 3 0.0 82.4 115.6 140.0
493 18 1 0.0 85.6 121.0 140.0
494 18 3 0.0 85.6 124.4 140.0
495 18 1 0.0 88.8 119.0 140.0
496 18 2 0.0 88.8 115.6 140.0
497 18 1 0.0 92.0 121.0 140.0
498 18 2 0.0 92.0 124.4 140.0
499 18 1 0.0 95.2 119.0 140.0
500 18 2 0.0 95.2 115.6 140.0
501 18 1 0.0 98.4 121.0 140.0
502 18 3 0.0 98.4 124.4 140.0
503 18 1 0.0 101.6 119.0 140.0
504 18 3 0.0 101.6 115.6 140.0
505 19 1 0.0 120.0 1.0 0.0
506 19 3 0.0 120.0 4.4 0.0
507 19 1 0.0 123.2 -1.0 1.2246467991473532e-16
508 19 3 0.0 123.2 -4.4 5.388445916248355e-16
509 19 1 0.0 126.4 1.0 0.0
510 19 2 0.0 126.4 4.4 0.0
511 19 1 0.0 129.6 -1.0 1.2246467991473532e-16
512 19 2 0.0 129.6 -4.4 5.388445916248355e-16
513 19 1 0.0 132.8 1.0 0.0
514 19 2 0.0 132.8 4.4 0.0
515 19 1 0.0 136.0 -1.0 1.2246467991473532e-16
516 19 2 0.0 136.0 -4.4 5.388445916248355e-16
517 19 1 0.0 139.2 1.0 0.0
518 19 3 0.0 139.2 4.4 0.0
519 19 1 0.0 142.4 -1.0 1.2246467991473532e-16
520 19 3 0.0 142.4 -4.4 5.388445916248355e-16
521 19 1 0.0 145.6 1.0 0.0
522 19 3 0.0 145.6 4.4 0.0
523 19 1 0.0 148.8 -1.0 1.2246467991473532e-16
524 19 2 0.0 148.8 -4.4 5.388445916248355e-16
525 19 1 0.0 152.0 1.0 0.0
526 19 2 0.0 152.0 4.4 0.0
527 19 1 0.0 155.2 -1.0 1.2246467991473532e-16
528 19 2 0.0 155.2 -4.4 5.388445916248355e-16
529 19 1 0.0 158.4 1.0 0.0
530 19 3 0.0 158.4 4.4 0.0
531 19 1 0.0 161.6 -1.0 1.2246467991473532e-16
532 19 3 0.0 161.6 -4.4 5.388445916248355e-16
533 20 1 0.0 120.0 21.0 60.0
534 20 3 0.0 120.0 24.4 60.0
535 20 1 0.0 123.2 19.0 60.0
536 20 3 0.0 123.2 15.6 60.0
537 20 1 0.0 126.4 21.0 60.0
538 20 2 0.0 126.4 24.4 60.0
539 20 1 0.0 129.6 19.0 60.0
540 20 2 0.0 129.6 15.6 60.0
541 20 1 0.0 132.8 21.0 60.0
542 20 2 0.0 132.8 24.4 60.0
543 20 1 0.0 136.0 19.0 60.0
544 20 2 0.0 136.0 15.6 60.0
545 20 1 0.0 139.2 21.0 60.0
546 20 3 0.0 139.2 24.4 60.0
547 20 1 0.0 142.4 19.0 60.0
548 20 3 0.0 142.4 15.6 60.0
549 20 1 0.0 145.6 21.0 60.0
550 20 3 0.0 145.6 24.4 60.0
551 20 1 0.0 148.8 19.0 60.0
552 20 2 0.0 148.8 15.6 60.0
553 20 1 0.0 152.0 21.0 60.0
554 20 2 0.0 152.0 24.4 60.0
555 20 1 0.0 155.2 19.0 60.0
556 20 2 0.0 155.2 15.6 60.0
557 20 1 0.0 158.4 21.0 60.0
558 20 3 0.0 158.4 24.4 60.0
559 20 1 0.0 161.6 19.0 60.0
560 20 3 0.0 161.6 15.6 60.0
561 21 1 0.0 120.0 1.0 120.0
562 21 3 0.0 120.0 4.4 120.0
563 21 1 0.0 123.2 -1.0 120.0
564 21 3 0.0 123.2 -4.4 120.0
565 21 1 0.0 126.4 1.0 120.0
566 21 2 0.0 126.4 4.4 120.0
567 21 1 0.0 129.6 -1.0 120.0
568 21 2 0.0 129.6 -4.4 120.0
569 21 1 0.0 132.8 1.0 120.0
570 21 2 0.0 132.8 4.4 120.0
571 21 1 0.0 136.0 -1.0 120.0
572 21 2 0.0 136.0 -4.4 120.0
573 21 1 0.0 139.2 1.0 120.0
574 21 3 0.0 139.2 4.4 120.0
575 21 1 0.0 142.4 -1.0 120.0
576 21 3 0.0 142.4 -4.4 120.0
577 21 1 0.0 145.6 1.0 120.0
578 21 3 0.0 145.6 4.4 120.0
579 21 1 0.0 148.8 -1.0 120.0
580 21 2 0.0 148.8 -4.4 120.0
581 21 1 0.0 152.0 1.0 120.0
582 21 2 0.0 152.0 4.4 120.0
583 21 1 0.0 155.2 -1.0 120.0
584 21 2 0.0 155.2 -4.4 120.0
585 21 1 0.0 158.4 1.0 120.0
586 21 3 0.0 158.4 4.4 120.0
587 21 1 0.0 161.6 -1.0 120.0
588 21 3 0.0 161.6 -4.4 120.0
589 22 1 0.0 140.0 61.0 0.0
590 22 3 0.0 140.0 64.4 0.0
591 22 1 0.0 143.2 59.0 1.2246467991473532e-16
592 22 3 0.0 143.2 55.6 5.388445916248355e-16
593 22 1 0.0 146.4 61.0 0.0
594 22 2 0.0 146.4 64.4 0.0
595 22 1 0.0 149.6 59.0 1.2246467991473532e-16
596 22 2 0.0 149.6 55.6 5.388445916248355e-16
597 22 1 0.0 152.8 61.0 0.0
598 22 2 0.0 152.8 64.4 0.0
599 22 1 0.0 156.0 59.0 1.2246467991473532e-16
600 22 2 0.0 156.0 55.6 5.388445916248355e-16
601 22 1 0.0 159.2 61.0 0.0
602 22 3 0.0 159.2 64.4 0.0
603 22 1 0.0 162.4 59.0 1.2246467991473532e-16
604 22 3 0.0 162.4 55.6 5.388445916248355e-16
605 22 1 0.0 165.6 61.0 0.0
606 22 3 0.0 165.6 64.4 0.0
607 22 1 0.0 168.8 59.0 1.2246467991473532e-16
608 22 2 0.0 168.8 55.6 5.388445916248355e-16
609 22 1 0.0 172.0 61.0 0.0
610 22 2 0.0 172.0 64.4 0.0
611 22 1 0.0 175.2 59.0 1.2246467991473532e-16
612 22 2 0.0 175.2 55.6 5.388445916248355e-16
613 22 1 0.0 178.4 61.0 0.0
614 22 3 0.0 178.4 64.4 0.0
615 22 1 0.0 181.6 59.0 1.2246467991473532e-16
616 22 3 0.0 181.6 55.6 5.388445916248355e-16
617 23 1 0.0 140.0 81.0 60.0
618 23 3 0.0 140.0 84.4 60.0
619 23 1 0.0 143.2 79.0 60.0
620 23 3 0.0 143.2 75.6 60.0
621 23 1 0.0 146.4 81.0 60.0
622 23 2 0.0 146.4 84.4 60.0
623 23 1 0.0 149.6 79.0 60.0
624 23 2 0.0 149.6 75.6 60.0
625 23 1 0.0 152.8 81.0 60.0
626 23 2 0.0 152.8 84.4 60.0
627 23 1 0.0 156.0 79.0 60.0
628 23 2 0.0 156.0 75.6 60.0
629 23 1 0.0 159.2 81.0 60.0
630 23 3 0.0 159.2 84.4 60.0
631 23 1 0.0 162.4 79.0 60.0
632 23 3 0.0 162.4 75.6 60.0
633 23 1 0.0 165.6 81.0 60.0
634 23 3 0.0 165.6 84.4 60.0
635 23 1 0.0 168.8 79.0 60.0
636 23 2 0.0 168.8 75.6 60.0
637 23 1 0.0 172.0 81.0 60.0
638 23 2 0.0 172.0 84.4 60.0
639 23 1 0.0 175.2 79.0 60.0
640 23 2 0.0 175.2 75.6 60.0
641 23 1 0.0 178.4 81.0 60.0
642 23 3 0.0 178.4 84.4 60.0
643 23 1 0.0 181.6 79.0 60.0
644 23 3 0.0 181.6 75.6 60.0
645 24 1 0.0 140.0 61.0 120.0
646 24 3 0.0 140.0 64.4 120.0
647 24 1 0.0 143.2 59.0 120.0
648 24 3 0.0 143.2 55.6 120.0
649 24 1 0.0 146.4 61.0 120.0
650 24 2 0.0 146.4 64.4 120.0
651 24 1 0.0 149.6 59.0 120.0
652 24 2 0.0 149.6 55.6 120.0
653 24 1 0.0 152.8 61.0 120.0
654 24 2 0.0 152.8 64.4 120.0
655 24 1 0.0 156.0 59.0 120.0
656 24 2 0.0 156.0 55.6 120.0
657 24 1 0.0 159.2 61.0 120.0
658 24 3 0.0 159.2 64.4 120.0
659 24 1 0.0 162.4 59.0 120.0
660 24 3 0.0 162.4 55.6 120.0
661 24 1 0.0 165.6 61.0 120.0
662 24 3 0.0 165.6 64.4 120.0
663 24 1 0.0 168.8 59.0 120.0
664 24 2 0.0 168.8 55.6 120.0
665 24 1 0.0 172.0 61.0 120.0
666 24 2 0.0 172.0 64.4 120.0
667 24 1 0.0 175.2 59.0 120.0
668 24 2 0.0 175.2 55.6 120.0
669 24 1 0.0 178.4 61.0 120.0
670 24 3 0.0 178.4 64.4 120.0
671 24 1 0.0 181.6 59.0 120.0
672 24 3 0.0 181.6 55.6 120.0
673 25 1 0.0 120.0 121.0 0.0
674 25 3 0.0 120.0 124.4 0.0
675 25 1 0.0 123.2 119.0 1.2246467991473532e-16
676 25 3 0.0 123.2 115.6 5.388445916248355e-16
677 25 1 0.0 126.4 121.0 0.0
678 25 2 0.0 126.4 124.4 0.0
679 25 1 0.0 129.6 119.0 1.2246467991473532e-16
680 25 2 0.0 129.6 115.6 5.388445916248355e-16
681 25 1 0.0 132.8 121.0 0.0
682 25 2 0.0 132.8 124.4 0.0
683 25 1 0.0 136.0 119.0 1.2246467991473532e-16
684 25 2 0.0 136.0 115.6 5.388445916248355e-16
685 25 1 0.0 139.2 121.0 0.0
686 25 3 0.0 139.2 124.4 0.0
687 25 1 0.0 142.4 119.0 1.2246467991473532e-16
688 25 3 0.0 142.4 115.6 5.388445916248355e-16
689 25 1 0.0 145.6 121.0 0.0
690 25 3 0.0 145.6 124.4 0.0
691 25 1 0.0 148.8 119.0 1.2246467991473532e-16
692 25 2 0.0 148.8 115.6 5.388445916248355e-16
693 25 1 0.0 152.0 121.0 0.0
694 25 2 0.0 152.0 124.4 0.0
695 25 1 0.0 155.2 119.0 1.2246467991473532e-16
696 25 2 0.0 155.2 115.6 5.388445916248355e-16
697 25 1 0.0 158.4 121.0 0.0
698 25 3 0.0 158.4 124.4 0.0
699 25 1 0.0 161.6 119.0 1.2246467991473532e-16
700 25 3 0.0 161.6 115.6 5.388445916248355e-16
701 26 1 0.0 120.0 141.0 60.0
702 26 3 0.0 120.0 144.4 60.0
703 26 1 0.0 123.2 139.0 60.0
704 26 3 0.0 123.2 135.6 60.0
705 26 1 0.0 126.4 141.0 60.0
706 26 2 0.0 126.4 144.4 60.0
707 26 1 0.0 129.6 139.0 60.0
708 26 2 0.0 129.6 135.6 60.0
709 26 1 0.0 132.8 141.0 60.0
710 26 2 0.0 132.8 144.4 60.0
711 26 1 0.0 136.0 139.0 60.0
712 26 2 0.0 136.0 135.6 60.0
713 26 1 0.0 139.2 141.0 60.0
714 26 3 0.0 139.2 144.4 60.0
715 26 1 0.0 142.4 139.0 60.0
716 26 3 0.0 142.4 135.6 60.0
717 26 1 0.0 145.6 141.0 60.0
718 26 3 0.0 145.6 144.4 60.0
719 26 1 0.0 148.8 139.0 60.0
720 26 2 0.0 148.8 135.6 60.0
721 26 1 0.0 152.0 141.0 60.0
722 26 2 0.0 152.0 144.4 60.0
723 26 1 0.0 155.2 139.0 60.0
724 26 2 0.0 155.2 135.6 60.0
725 26 1 0.0 158.4 141.0 60.0
726 26 3 0.0 158.4 144.4 60.0
727 26 1 0.0 161.6 139.0 60.0
728 26 3 0.0 161.6 135.6 60.0
729 27 1 0.0 120.0 121.0 120.0
730 27 3 0.0 120.0 124.4 120.0
731 27 1 0.0 123.2 119.0 120.0
732 27 3 0.0 123.2 115.6 120.0
733 27 1 0.0 126.4 121.0 120.0
734 27 2 0.0 126.4 124.4 120.0
735 27 1 0.0 129.6 119.0 120.0
736 27 2 0.0 129.6 115.6 120.0
737 27 1 0.0 132.8 121.0 120.0
738 27 2 0.0 132.8 124.4 120.0
739 27 1 0.0 136.0 119.0 120.0
740 27 2 0.0 136.0 115.6 120.0
741 27 1 0.0 139.2 121.0 120.0
742 27 3 0.0 139.2 124.4 120.0
743 27 1 0.0 142.4 119.0 120.0
744 27 3 0.0 142.4 115.6 120.0
745 27 1 0.0 145.6 121.0 120.0
746 27 3 0.0 145.6 124.4 120.0
747 27 1 0.0 148.8 119.0 120.0
748 27 2 0.0 148.8 115.6 120.0
749 27 1 0.0 152.0 121.0 120.0
750 27 2 0.0 152.0 124.4 120.0
751 27 1 0.0 155.2 119.0 120.0
752 27 2 0.0 155.2 115.6 120.0
753 27 1 0.0 158.4 121.0 120.0
754 27 3 0.0 158.4 124.4 120.0
755 27 1 0.0 161.6 119.0 120.0
756 27 3 0.0 161.6 115.6 120.0

Bonds

1 2 1 2
2 2 3 4
3 2 5 6
4 2 7 8
5 2 9 10
6 2 11 12
7 2 13 14
8 2 15 16
9 2 17 18
10 2 19 20
11 2 21 22
12 2 23 24
13 2 25 26
14 2 27 28
15 1 1 3
16 1 3 5
17 1 5 7
18 1 7 9
19 1 9 11
20 1 11 13
21 1 13 15
22 1 15 17
23 1 17 19
24 1 19 21
25 1 21 23
26 1 23 25
27 1 25 27
28 2 29 30
29 2 31 32
30 2 33 34
31 2 35 36
32 2 37 38
33 2 39 40
34 2 41 42
35 2 43 44
36 2 45 46
37 2 47 48
38 2 49 50
39 2 51 52
40 2 53 54
41 2 55 56
42 1 29 31
43 1 31 33
44 1 33 35
45 1 35 37
46 1 37 39
47 1 39 41
48 1 41 43
49 1 43 45
50 1 45 47
51 1 47 49
52 1 49 51
53 1 51 53
54 1 53 55
55 2 57 58
56 2 59 60
57 2 61 62
58 2 63 64
59 2 65 66
60 2 67 68
61 2 69 70
62 2 71 72
63 2 73 74
64 2 75 76
65 2 77 78
66 2 79 80
67 2 81 82
68 2 83 84
69 1 57 59
70 1 59 61
71 1 61 63
72 1 63 65
73 1 65 67
74 1 67 69
75 1 69 71
76 1 71 73
77 1 73 75
78 1 75 77
79 1 77 79
80 1 79 81
81 1 81 83
82 2 85 86
83 2 87 88
84 2 89 90
85 2 91 92
86 2 93 94
87 2 95 96
88 2 97 98
89 2 99 100
90 2 101 102
91 2 103 104
92 2 105 106
93 2 107 108
94 2 109 110
95 2 111 112
96 1 85 87
97 1 87 89
98 1 89 91
99 1 91 93
100 1 93 95
101 1 95 97
102 1 97 99
103 1 99 101
104 1 101 103
105 1 103 105
106 1 105 107
107 1 107 109
108 1 109 111
109 2 113 114
110 2 115 116
111 2 117 118
112 2 119 120
113 2 121 122
114 2 123 124
115 2 125 126
116 2 127 128
117 2 129 130
118 2 131 132
119 2 133 134
120 2 135 136
121 2 137 138
122 2 139 140
123 1 113 115
124 1 115 117
125 1 117 119
126 1 119 121
127 1 121 123
128 1 123 125
129 1 125 127
130 1 127 129
131 1 129 131
132 1 131 133
133 1 133 135
134 1 135 137
135 1 137 139
136 2 141 142
137 2 143 144
138 2 145 146
139 2 147 148
140 2 149 150
141 2 151 152
142 2 153 154
143 2 155 156
144 2 157 158
145 2 159 160
146 2 161 162
147 2 163 164
148 2 165 166
149 2 167 168
150 1 141 143
151 1 143 145
152 1 145 147
153 1 147 149
154 1 149 151
155 1 151 153
156 1 153 155
157 1 155 157
158 1 157 159
159 1 159 161
160 1 161 163
161 1 163 165
162 1 165 167
163 2 169 170
164 2 171 172
165 2 173 174
166 2 175 176
167 2 177 178
168 2 179 180
169 2 181 182
170 2 183 184
171 2 185 186
172 2 187 188
173 2 189 190
174 2 191 192
175 2 193 194
176 2 195 196
177 1 169 171
178 1 171 173
179 1 173 175
180 1 175 177
181 1 177 179
182 1 179 181
183 1 181 183
184 1 183 185
185 1 185 187
186 1 187 189
187 1 189 191
188 1 191 193
189 1 193 195
190 2 197 198
191 2 199 200
192 2 201 202
193 2 203 204
194 2 205 206
195 2 207 208
196 2 209 210
197 2 211 212
198 2 213 214
199 2 215 216
200 2 217 218
201 2 219 220
202 2 221 222
203 2 223 224
204 1 197 199
205 1 199 201
206 1 201 203
207 1 203 205
208 1 205 207
209 1 207 209
210 1 209 211
211 1 211 213
212 1 213 215
213 1 215 217
214 1 217 219
215 1 219 221
216 1 221 223
217 2 225 226
218 2 227 228
219 2 229 230
220 2 231 232
221 2 233 234
222 2 235 236
223 2 237 238
224 2 239 240
225 2 241 242
226 2 243 244
227 2 245 246
228 2 247 248
229 2 249 250
230 2 251 252
231 1 225 227
232 1 227 229
233 1 229 231
234 1 231 233
235 1 233 235
236 1 235 237
237 1 237 239
238 1 239 241
239 1 241 243
240 1 243 245
241 1 245 247
242 1 247 249
243 1 249 251
244 2 253 254
245 2 255 256
246 2 257 258
247 2 259 260
248 2 261 262
249 2 263 264
250 2 265 266
251 2 267 268
252 2 269 270
253 2 271 272
254 2 273 274
255 2 275 276
256 2 277 278
257 2 279 280
258 1 253 255
259 1 255 257
260 1 257 259
261 1 259 261
262 1 261 263
263 1 263 265
264 1 265 267
265 1 267 269
266 1 269 271
267 1 271 273
268 1 273 275
269 1 275 277
270 1 277 279
271 2 281 282
272 2 283 284
273 2 285 286
274 2 287 288
275 2 289 290
276 2 291 292
277 2 293 294
278 2 295 296
279 2 297 298
280 2 299 300
281 2 301 302
282 2 303 304
283 2 305 306
284 2 307 308
285 1 281 283
286 1 283 285
287 1 285 287
288 1 287 289
289 1 289 291
290 1 291 293
291 1 293 295
292 1 295 297
293 1 297 299
294 1 299 301
295 1 301 303
296 1 303 305
297 1 305 307
298 2 309 310
299 2 311 312
300 2 313 314
301 2 315 316
302 2 317 318
303 2 319 320
304 2 321 322
305 2 323 324
306 2 325 326
307 2 327 328
308 2 329 330
309 2 331 332
310 2 333 334
311 2 335 336
312 1 309 311
313 1 311 313
314 1 313 315
315 1 315 317
316 1 317 319
317 1 319 321
318 1 321 323
319 1 323 325
320 1 325 327
321 1 327 329
322 1 329 331
323 1 331 333
324 1 333 335
325 2 337 338
326 2 339 340
327 2 341 342
328 2 343 344
329 2 345 346
330 2 347 348
331 2 349 350
332 2 351 352
333 2 353 354
334 2 355 356
335 2 357 358
336 2 359 360
337 2 361 362
338 2 363 364
339 1 337 339
340 1 339 341
341 1 341 343
342 1 343 345
343 1 345 347
344 1 347 349
345 1 349 351
346 1 351 353
347 1 353 355
348 1 355 357
349 1 357 359
350 1 359 361
351 1 361 363
352 2 365 366
353 2 367 368
354 2 369 370
355 2 371 372
356 2 373 374
357 2 375 376
358 2 377 378
359 2 379 380
360 2 381 382
361 2 383 384
362 2 385 386
363 2 387 388
364 2 389 390
365 2 391 392
366 1 365 367
367 1 367 369
368 1 369 371
369 1 371 373
370 1 373 375
371 1 375 377
372 1 377 379
373 1 379 381
374 1 381 383
375 1 383 385
376 1 385 387
377 1 387 389
378 1 389 391
379 2 393 394
380 2 395 396
381 2 397 398
382 2 399 400
383 2 401 402
384 2 403 404
385 2 405 406
386 2 407 408
387 2 409 410
388 2 411 412
389 2 413 414
390 2 415 416
391 2 417 418
392 2 419 420
393 1 393 395
394 1 395 397
395 1 397 399
396 1 399 401
397 1 401 403
398 1 403 405
399 1 405 407
400 1 407 409
401 1 409 411
402 1 411 413
403 1 413 415
404 1 415 417
405 1 417 419
406 2 421 422
407 2 423 424
408 2 425 426
409 2 427 428
410 2 429 430
411 2 431 432
412 2 433 434
413 2 435 436
414 2 437 438
415 2 439 440
416 2 441 442
417 2 443 444
418 2 445 446
419 2 447 448
420 1 421 423
421 1 423 425
422 1 425 427
423 1 427 429
424 1 429 431
425 1 431 433
426 1 433 435
427 1 435 437
428 1 437 439
429 1 439 441
430 1 441 443
431 1 443 445
432 1 445 447
433 2 449 450
434 2 451 452
435 2 453 454
436 2 455 456
437 2 457 458
438 2 459 460
439 2 461 462
440 2 463 464
441 2 465 466
442 2 467 468
443 2 469 470
444 2 471 472
445 2 473 474
446 2 475 476
447 1 449 451
448 1 451 453
449 1 453 455
450 1 455 457
451 1 457 459
452 1 459 461
453 1 461 463
454 1 463 465
455 1 465 467
456 1 467 469
457 1 469 471
458 1 471 473
459 1 473 475
460 2 477 478
461 2 479 480
462 2 481 482
463 2 483 484
464 2 485 486
465 2 487 488
466 2 489 490
467 2 491 492
468 2 493 494
469 2 495 496
470 2 497 498
471 2 499 500
472 2 501 502
473 2 503 504
474 1 477 479
475 1 479 481
476 1 481 483
477 1 483 485
478 1 485 487
479 1 487 489
480 1 489 491
481 1 491 493
482 1 493 495
483 1 495 497
484 1 497 499
485 1 499 501
486 1 501 503
487 2 505 506
488 2 507 508
489 2 509 510
490 2 511 512
491 2 513 514
492 2 515 516
493 2 517 518
494 2 519 520
495 2 521 522
496 2 523 524
497 2 525 526
498 2 527 528
499 2 529 530
500 2 531 532
501 1 505 507
502 1 507 509
503 1 509 511
504 1 511 513
505 1 513 515
506 1 515 517
507 1 517 519