ITEM: TIMESTEP
400
ITEM: NUMBER OF ATOMS
100
ITEM: BOX BOUNDS ff ff ff
0.0000000000000000e+00 1.5850000000000000e+02
0.0000000000000000e+00 1.5850000000000000e+02
0.0000000000000000e+00 1.0000000000000000e+02
ITEM: ATOMS id type xs ys zs
86 1 0.617698 0.517099 0.508792
75 1 0.561516 0.53021 0.498789
78 1 0.580609 0.528277 0.493272
79 1 0.586443 0.527444 0.481168
77 1 0.575295 0.53629 0.491973
74 1 0.554883 0.529727 0.50986
80 1 0.591627 0.535519 0.479435
84 1 0.616814 0.527845 0.490498
83 1 0.610765 0.533676 0.482982
82 1 0.605162 0.528507 0.473592
81 1 0.598099 0.534164 0.468285
68 1 0.53019 0.513604 0.556588
87 1 0.612629 0.512605 0.519683
88 1 0.606226 0.506614 0.513296
89 1 0.601033 0.502417 0.52434
90 1 0.59496 0.495985 0.518227
91 1 0.58979 0.491901 0.529402
93 1 0.590699 0.483201 0.550221
92 1 0.595776 0.48737 0.539011
69 1 0.537054 0.513346 0.545849
70 1 0.536175 0.521216 0.537108
71 1 0.543 0.521305 0.526292
72 1 0.551447 0.52399 0.532348
76 1 0.568527 0.536317 0.502865
73 1 0.558096 0.524153 0.521267
85 1 0.611763 0.522753 0.500734
95 1 0.591769 0.474657 0.571217
96 1 0.597881 0.470582 0.581182
97 1 0.602719 0.46335 0.574475
98 1 0.596875 0.455806 0.57199
99 1 0.594702 0.451461 0.585239
100 1 0.602582 0.447221 0.591025
61 1 0.494166 0.494908 0.59969
62 1 0.498541 0.503093 0.595489
60 1 0.488803 0.496648 0.612109
66 1 0.522783 0.505752 0.574509
67 1 0.52963 0.505106 0.56378
65 1 0.514525 0.508507 0.567888
64 1 0.507761 0.509906 0.578568
63 1 0.504671 0.501429 0.583978
94 1 0.59677 0.479025 0.560098
10 1 0.408292 0.331983 0.65017
8 1 0.422187 0.334553 0.63872
9 1 0.414779 0.338665 0.646081
11 1 0.411943 0.326587 0.661469
7 1 0.429048 0.34117 0.636294
4 1 0.429036 0.362083 0.616766
5 1 0.43249 0.354864 0.625319
6 1 0.425578 0.348273 0.627526
2 1 0.438659 0.372561 0.627585
3 1 0.436025 0.368553 0.614302
1 1 0.445688 0.378992 0.625115
42 1 0.498607 0.43403 0.630015
40 1 0.501484 0.421635 0.644675
41 1 0.496215 0.429675 0.643144
45 1 0.518197 0.446706 0.640941
46 1 0.521789 0.448997 0.627206
43 1 0.507839 0.436863 0.630448
44 1 0.508831 0.444508 0.639668
47 1 0.531136 0.451228 0.62868
48 1 0.531934 0.459343 0.636849
55 1 0.513985 0.480884 0.653784
51 1 0.538831 0.477049 0.638306
53 1 0.529538 0.483713 0.655336
50 1 0.541762 0.469698 0.647101
49 1 0.541238 0.461483 0.639117
52 1 0.537488 0.484944 0.646876
54 1 0.521891 0.483438 0.646004
56 1 0.506591 0.480358 0.643999
59 1 0.494598 0.497397 0.624287
58 1 0.497713 0.488581 0.628089
57 1 0.504323 0.489228 0.639179
12 1 0.413421 0.332211 0.673688
13 1 0.417672 0.327219 0.684917
14 1 0.420224 0.333438 0.695899
15 1 0.427091 0.339274 0.69037
16 1 0.435506 0.334549 0.689601
17 1 0.439786 0.334683 0.703312
18 1 0.442659 0.343729 0.706075
19 1 0.447022 0.344375 0.719677
20 1 0.454796 0.338656 0.719966
29 1 0.46496 0.37089 0.689321
30 1 0.465129 0.37851 0.679914
28 1 0.473494 0.36638 0.688845
27 1 0.472872 0.358005 0.696362
31 1 0.471764 0.384913 0.684453
37 1 0.487887 0.407729 0.667803
32 1 0.468834 0.389636 0.69697
34 1 0.477086 0.402089 0.68937
33 1 0.475768 0.395877 0.7009
36 1 0.486279 0.413379 0.679944
35 1 0.484692 0.407771 0.692152
38 1 0.490121 0.413081 0.655559
39 1 0.498915 0.416894 0.657365
21 1 0.460621 0.341466 0.731365
22 1 0.46845 0.33581 0.732234
23 1 0.473332 0.335922 0.719012
24 1 0.476617 0.34479 0.715841
26 1 0.481546 0.353782 0.696821
25 1 0.480425 0.344729 0.701791
