ITEM: TIMESTEP
1480
ITEM: NUMBER OF ATOMS
100
ITEM: BOX BOUNDS ff ff ff
0.0000000000000000e+00 1.5850000000000000e+02
0.0000000000000000e+00 1.5850000000000000e+02
0.0000000000000000e+00 1.0000000000000000e+02
ITEM: ATOMS id type xs ys zs
98 1 0.544059 0.448257 0.560338
99 1 0.535851 0.445411 0.567056
100 1 0.537723 0.438601 0.577504
93 1 0.556237 0.477065 0.549214
92 1 0.565414 0.479913 0.547841
95 1 0.54645 0.467641 0.561838
96 1 0.545668 0.461585 0.573707
97 1 0.549615 0.453022 0.570349
94 1 0.555662 0.470292 0.560071
70 1 0.533353 0.494994 0.548917
71 1 0.54155 0.498754 0.543479
72 1 0.544556 0.505945 0.5525
75 1 0.559868 0.515651 0.526924
74 1 0.551458 0.512804 0.532912
90 1 0.575145 0.490288 0.537264
91 1 0.565962 0.487381 0.538194
73 1 0.552899 0.509341 0.547011
86 1 0.599284 0.501541 0.564168
87 1 0.590487 0.497592 0.564769
88 1 0.587334 0.495834 0.550577
89 1 0.578209 0.492721 0.551247
78 1 0.578003 0.51846 0.531467
79 1 0.58662 0.520383 0.525297
77 1 0.571849 0.525698 0.528838
80 1 0.590499 0.5282 0.531869
76 1 0.563252 0.523272 0.534623
84 1 0.606935 0.514762 0.556972
83 1 0.605554 0.52309 0.549553
82 1 0.604426 0.52131 0.534605
81 1 0.59982 0.528686 0.527939
85 1 0.598519 0.510038 0.557058
2 1 0.430388 0.317914 0.615178
1 1 0.436506 0.313214 0.605984
62 1 0.511121 0.451608 0.594676
64 1 0.514116 0.462759 0.577687
63 1 0.517902 0.457419 0.588911
68 1 0.527216 0.486132 0.567129
66 1 0.521902 0.47583 0.584114
67 1 0.529223 0.481619 0.580252
65 1 0.520678 0.469214 0.573136
69 1 0.535076 0.490897 0.562484
7 1 0.422454 0.330102 0.662658
4 1 0.41865 0.316237 0.631643
5 1 0.423614 0.320798 0.64259
6 1 0.417488 0.325524 0.651732
3 1 0.424777 0.311543 0.622457
29 1 0.493183 0.394238 0.643006
30 1 0.498997 0.399703 0.634386
28 1 0.498503 0.388786 0.652414
27 1 0.492706 0.383283 0.660981
31 1 0.50353 0.406206 0.643133
32 1 0.497245 0.41283 0.648123
37 1 0.526955 0.427882 0.645457
34 1 0.50862 0.423661 0.648848
33 1 0.501865 0.419139 0.657081
36 1 0.520154 0.434284 0.649311
35 1 0.513336 0.429968 0.657679
40 1 0.542902 0.44437 0.632962
41 1 0.537592 0.446948 0.620852
38 1 0.533201 0.432108 0.635916
39 1 0.537191 0.439727 0.642849
61 1 0.515001 0.446274 0.605854
60 1 0.508019 0.44214 0.614144
55 1 0.507555 0.474137 0.651122
56 1 0.511278 0.46573 0.646488
59 1 0.50324 0.449071 0.621637
58 1 0.509207 0.45336 0.631567
57 1 0.50501 0.461254 0.637293
42 1 0.542576 0.452798 0.611603
45 1 0.534857 0.473944 0.626014
46 1 0.53863 0.480097 0.61587
43 1 0.543267 0.461523 0.618047
44 1 0.534386 0.465141 0.61981
53 1 0.503785 0.488725 0.643733
52 1 0.503073 0.49475 0.631801
54 1 0.506348 0.479899 0.638996
47 1 0.537818 0.489077 0.621297
48 1 0.528564 0.49042 0.625029
51 1 0.511704 0.495782 0.625102
50 1 0.517941 0.500002 0.634706
49 1 0.526783 0.499627 0.628607
10 1 0.40585 0.346698 0.67274
9 1 0.411848 0.341743 0.663667
11 1 0.410937 0.351888 0.682816
8 1 0.41633 0.334869 0.671749
12 1 0.415816 0.358806 0.675446
13 1 0.421211 0.363753 0.685427
14 1 0.426413 0.370391 0.677962
15 1 0.432942 0.366069 0.668967
16 1 0.439871 0.361949 0.677429
17 1 0.445477 0.368722 0.683774
18 1 0.450606 0.373172 0.672889
19 1 0.456237 0.379887 0.679289
20 1 0.462561 0.375593 0.688624
21 1 0.468366 0.382231 0.69487
22 1 0.474684 0.377913 0.704205
23 1 0.480736 0.37241 0.696068
24 1 0.48652 0.378008 0.687608
26 1 0.498058 0.378043 0.670627
25 1 0.492289 0.372447 0.679087
