ITEM: TIMESTEP
100
ITEM: NUMBER OF ATOMS
100
ITEM: BOX BOUNDS ff ff ff
0.0000000000000000e+00 1.5850000000000000e+02
0.0000000000000000e+00 1.5850000000000000e+02
0.0000000000000000e+00 1.0000000000000000e+02
ITEM: ATOMS id type xs ys zs
86 1 0.617199 0.514239 0.503585
75 1 0.561672 0.533429 0.488485
78 1 0.580691 0.530956 0.484651
79 1 0.587638 0.530455 0.474068
77 1 0.57592 0.539291 0.483225
74 1 0.55505 0.532587 0.499521
80 1 0.593623 0.537979 0.475506
84 1 0.617506 0.526473 0.487963
83 1 0.612259 0.533549 0.481737
82 1 0.606775 0.530017 0.470462
81 1 0.600845 0.536953 0.465508
68 1 0.53678 0.516032 0.552967
87 1 0.612337 0.510341 0.515267
88 1 0.604631 0.505442 0.510338
89 1 0.59999 0.502092 0.522655
90 1 0.592773 0.496202 0.518656
91 1 0.588667 0.492939 0.531498
93 1 0.591923 0.485701 0.55333
92 1 0.595519 0.488743 0.539976
69 1 0.541471 0.51559 0.539619
70 1 0.538513 0.522859 0.5307
71 1 0.544206 0.523392 0.518394
72 1 0.552719 0.527034 0.522698
76 1 0.568634 0.539407 0.493243
73 1 0.558789 0.527262 0.51082
85 1 0.611871 0.521157 0.497079
95 1 0.596104 0.479583 0.57555
96 1 0.60367 0.477418 0.584401
97 1 0.608533 0.469922 0.578614
98 1 0.603652 0.46171 0.580734
99 1 0.603866 0.459205 0.595491
100 1 0.612862 0.456767 0.599458
61 1 0.504751 0.497093 0.601043
62 1 0.510029 0.505151 0.600017
60 1 0.497466 0.498619 0.610789
66 1 0.533614 0.508741 0.574352
67 1 0.537902 0.507795 0.560726
65 1 0.524849 0.512522 0.572105
64 1 0.519897 0.512993 0.585204
63 1 0.516379 0.504266 0.588584
94 1 0.599293 0.482696 0.561985
10 1 0.413732 0.334484 0.641877
8 1 0.425353 0.341516 0.628914
9 1 0.418353 0.342805 0.63925
11 1 0.419465 0.328517 0.649777
7 1 0.430326 0.349735 0.627433
4 1 0.423458 0.372001 0.616833
5 1 0.429375 0.36497 0.621502
6 1 0.424467 0.356686 0.622317
2 1 0.430997 0.382862 0.630447
3 1 0.42831 0.380336 0.616309
1 1 0.435894 0.391176 0.629887
42 1 0.482302 0.431682 0.637862
40 1 0.488323 0.421267 0.654211
41 1 0.481853 0.428358 0.652226
45 1 0.503445 0.443685 0.639421
46 1 0.505001 0.444425 0.624375
43 1 0.491369 0.434309 0.634646
44 1 0.493985 0.44246 0.641772
47 1 0.514451 0.443681 0.621463
48 1 0.519242 0.451225 0.627205
55 1 0.516356 0.478546 0.651605
51 1 0.530994 0.465627 0.621531
53 1 0.530362 0.475332 0.641142
50 1 0.533432 0.457836 0.629737
49 1 0.528675 0.450162 0.624355
52 1 0.534796 0.473555 0.627831
54 1 0.521155 0.477657 0.638403
56 1 0.507081 0.480658 0.648895
59 1 0.500748 0.498751 0.625156
58 1 0.502152 0.489672 0.629829
57 1 0.506202 0.48971 0.643715
12 1 0.421258 0.332441 0.663466
13 1 0.426836 0.326585 0.671812
14 1 0.42929 0.331212 0.684669
15 1 0.435729 0.338096 0.68132
16 1 0.444441 0.334124 0.679237
17 1 0.448088 0.331705 0.692884
18 1 0.45025 0.339825 0.700443
19 1 0.452298 0.33795 0.715092
20 1 0.460353 0.332706 0.716385
29 1 0.468432 0.364626 0.705086
30 1 0.469589 0.371121 0.693911
28 1 0.476622 0.363669 0.713075
27 1 0.476268 0.355335 0.720782
31 1 0.471257 0.379935 0.699545
37 1 0.477944 0.405702 0.678545
32 1 0.46329 0.383651 0.705906
34 1 0.466776 0.397815 0.696941
33 1 0.465175 0.392795 0.709763
36 1 0.472165 0.411175 0.687209
35 1 0.470333 0.406527 0.700308
38 1 0.479907 0.410161 0.665356
39 1 0.486807 0.416751 0.667508
21 1 0.462211 0.331673 0.731342
22 1 0.470278 0.326566 0.733807
23 1 0.478034 0.331391 0.728844
24 1 0.47869 0.339951 0.735925
26 1 0.484129 0.35423 0.729486
25 1 0.486172 0.344805 0.730113
