ITEM: TIMESTEP
200
ITEM: NUMBER OF ATOMS
100
ITEM: BOX BOUNDS ff ff ff
0.0000000000000000e+00 1.5850000000000000e+02
0.0000000000000000e+00 1.5850000000000000e+02
0.0000000000000000e+00 1.0000000000000000e+02
ITEM: ATOMS id type xs ys zs
86 1 0.618586 0.518827 0.505766
75 1 0.563042 0.531382 0.49395
78 1 0.581889 0.528508 0.487193
79 1 0.587511 0.527048 0.47498
77 1 0.576831 0.536653 0.485461
74 1 0.556853 0.531407 0.505688
80 1 0.592897 0.534876 0.472239
84 1 0.617786 0.528236 0.485746
83 1 0.611769 0.533396 0.477037
82 1 0.606483 0.527529 0.468228
81 1 0.599505 0.532732 0.461621
68 1 0.533334 0.516431 0.555009
87 1 0.613427 0.514751 0.516958
88 1 0.607665 0.507942 0.511134
89 1 0.602514 0.504022 0.522478
90 1 0.597117 0.496787 0.517079
91 1 0.592174 0.492882 0.528665
93 1 0.593612 0.485616 0.55078
92 1 0.598416 0.489397 0.538948
69 1 0.539599 0.515876 0.543404
70 1 0.538869 0.523927 0.535047
71 1 0.54524 0.523761 0.523559
72 1 0.554025 0.526114 0.528697
76 1 0.57041 0.537349 0.49683
73 1 0.560247 0.525867 0.517002
85 1 0.612642 0.523583 0.496377
95 1 0.595223 0.478851 0.573238
96 1 0.601561 0.476116 0.583944
97 1 0.606832 0.468658 0.578947
98 1 0.601477 0.460625 0.578366
99 1 0.599518 0.457492 0.592505
100 1 0.607614 0.454355 0.599199
61 1 0.497518 0.499982 0.601457
62 1 0.503038 0.507581 0.597938
60 1 0.493183 0.501719 0.614847
66 1 0.526312 0.508739 0.573576
67 1 0.532341 0.507815 0.56172
65 1 0.517994 0.51254 0.568664
64 1 0.512125 0.514103 0.580554
63 1 0.508168 0.505822 0.585286
94 1 0.599943 0.48261 0.561295
10 1 0.415473 0.333792 0.641894
8 1 0.427929 0.340765 0.630847
9 1 0.420097 0.342142 0.639553
11 1 0.420571 0.328156 0.651346
7 1 0.43256 0.349173 0.629285
4 1 0.425434 0.370338 0.614172
5 1 0.431271 0.364008 0.621088
6 1 0.426823 0.355467 0.622085
2 1 0.431096 0.382394 0.627542
3 1 0.429791 0.378937 0.613407
1 1 0.435428 0.391005 0.626774
42 1 0.48465 0.431971 0.63634
40 1 0.489096 0.419692 0.65022
41 1 0.484037 0.427926 0.650214
45 1 0.50658 0.442304 0.639012
46 1 0.50863 0.443798 0.624243
43 1 0.493869 0.433945 0.63297
44 1 0.49703 0.44155 0.640972
47 1 0.518198 0.443398 0.622261
48 1 0.522409 0.450733 0.629612
55 1 0.51558 0.47755 0.649755
51 1 0.534998 0.46526 0.627593
53 1 0.531004 0.474616 0.646503
50 1 0.536151 0.457253 0.635972
49 1 0.53201 0.449793 0.628825
52 1 0.537665 0.472989 0.635737
54 1 0.522804 0.477302 0.639639
56 1 0.507484 0.479854 0.642299
59 1 0.499554 0.500369 0.626137
58 1 0.500454 0.490883 0.628578
57 1 0.507749 0.489147 0.638193
12 1 0.421227 0.332426 0.665038
13 1 0.425834 0.326665 0.67492
14 1 0.42717 0.331476 0.688011
15 1 0.433889 0.338282 0.685848
16 1 0.442647 0.334206 0.685527
17 1 0.445462 0.332215 0.699828
18 1 0.447359 0.340543 0.706946
19 1 0.449871 0.339033 0.721522
20 1 0.457759 0.333488 0.722162
29 1 0.464703 0.366818 0.702816
30 1 0.4636 0.374248 0.693194
28 1 0.4739 0.363862 0.702646
27 1 0.474481 0.355195 0.709277
31 1 0.469162 0.381705 0.697318
37 1 0.478798 0.405987 0.677538
32 1 0.465749 0.38607 0.709866
34 1 0.471244 0.399634 0.701144
33 1 0.471573 0.393514 0.712971
36 1 0.478122 0.411761 0.689755
35 1 0.478232 0.406253 0.702317
38 1 0.479401 0.411208 0.664702
39 1 0.488184 0.415174 0.663667
21 1 0.462074 0.33483 0.735719
22 1 0.47015 0.329553 0.736883
23 1 0.476301 0.331718 0.725567
24 1 0.478914 0.341019 0.72603
26 1 0.483712 0.352504 0.710662
25 1 0.483912 0.343007 0.71334
