ITEM: TIMESTEP
1200
ITEM: NUMBER OF ATOMS
100
ITEM: BOX BOUNDS ff ff ff
0.0000000000000000e+00 1.5850000000000000e+02
0.0000000000000000e+00 1.5850000000000000e+02
0.0000000000000000e+00 1.0000000000000000e+02
ITEM: ATOMS id type xs ys zs
98 1 0.550169 0.448448 0.53992
99 1 0.541692 0.444585 0.543998
100 1 0.543157 0.436858 0.552888
93 1 0.561003 0.478029 0.537491
92 1 0.570066 0.481314 0.538013
95 1 0.550972 0.467384 0.546663
96 1 0.549807 0.460213 0.556754
97 1 0.554552 0.45232 0.552121
94 1 0.560083 0.47056 0.547059
70 1 0.535788 0.490884 0.549537
71 1 0.543251 0.495502 0.543179
72 1 0.546223 0.502648 0.55232
75 1 0.559329 0.514657 0.526098
74 1 0.551591 0.510461 0.532381
90 1 0.579821 0.492631 0.530149
91 1 0.570795 0.489253 0.5294
73 1 0.553957 0.506869 0.546075
86 1 0.600832 0.505503 0.561306
87 1 0.592976 0.49993 0.560373
88 1 0.59067 0.498623 0.545661
89 1 0.581976 0.494474 0.544766
78 1 0.576967 0.520271 0.530291
79 1 0.58517 0.52398 0.524787
77 1 0.569681 0.526447 0.528206
80 1 0.587512 0.531991 0.532515
76 1 0.561661 0.522557 0.53407
84 1 0.605807 0.520415 0.556845
83 1 0.602902 0.528702 0.550494
82 1 0.602416 0.527595 0.535295
81 1 0.596651 0.534343 0.529255
85 1 0.598548 0.514115 0.555469
2 1 0.427492 0.318885 0.609813
1 1 0.433064 0.316024 0.598171
62 1 0.512042 0.450082 0.598899
64 1 0.517207 0.459139 0.580228
63 1 0.519869 0.453991 0.592451
68 1 0.531508 0.481086 0.567845
66 1 0.527374 0.470663 0.585338
67 1 0.534628 0.476011 0.579876
65 1 0.524784 0.464085 0.574921
69 1 0.538772 0.486324 0.562157
7 1 0.423467 0.326524 0.660886
4 1 0.418542 0.313995 0.628854
5 1 0.42385 0.318843 0.63906
6 1 0.418189 0.321741 0.650566
3 1 0.424156 0.311143 0.617262
29 1 0.489453 0.398325 0.646775
30 1 0.495645 0.403525 0.638404
28 1 0.49437 0.392175 0.655638
27 1 0.488227 0.386717 0.663656
31 1 0.500907 0.409281 0.647443
32 1 0.495395 0.416344 0.65316
37 1 0.526366 0.428961 0.649557
34 1 0.507744 0.426063 0.653837
33 1 0.500786 0.421961 0.662201
36 1 0.520117 0.435722 0.654162
35 1 0.513193 0.431726 0.662715
40 1 0.54297 0.444575 0.636286
41 1 0.537473 0.447561 0.624625
38 1 0.532599 0.432917 0.639703
39 1 0.537276 0.440191 0.646498
61 1 0.51468 0.445008 0.61123
60 1 0.506874 0.442438 0.619262
55 1 0.508454 0.474832 0.655728
56 1 0.5118 0.466381 0.650586
59 1 0.50289 0.450327 0.625435
58 1 0.509025 0.454207 0.635531
57 1 0.505387 0.462437 0.641031
42 1 0.542454 0.45324 0.615096
45 1 0.53582 0.474645 0.629965
46 1 0.539007 0.480679 0.61915
43 1 0.543629 0.461922 0.621519
44 1 0.534928 0.465775 0.62412
53 1 0.505167 0.489706 0.649234
52 1 0.504365 0.495984 0.637645
54 1 0.507397 0.480909 0.643959
47 1 0.53859 0.489705 0.624496
48 1 0.529566 0.491173 0.629351
51 1 0.512863 0.496921 0.630508
50 1 0.519413 0.500874 0.639871
49 1 0.528079 0.500391 0.633192
10 1 0.405656 0.339083 0.678068
9 1 0.411375 0.335927 0.666784
11 1 0.410734 0.344487 0.687876
8 1 0.417751 0.32954 0.672252
12 1 0.41362 0.352592 0.680922
13 1 0.418919 0.357861 0.690616
14 1 0.42239 0.365633 0.683371
15 1 0.428886 0.362927 0.672862
16 1 0.436914 0.35968 0.679679
17 1 0.441757 0.367012 0.686041
18 1 0.445584 0.372576 0.675097
19 1 0.450458 0.379826 0.68159
20 1 0.457504 0.376148 0.690258
21 1 0.462662 0.383285 0.69654
22 1 0.469369 0.379501 0.705774
23 1 0.475761 0.374447 0.697565
24 1 0.481339 0.380416 0.689396
26 1 0.493277 0.381001 0.673026
25 1 0.487303 0.375174 0.680702
