ITEM: TIMESTEP
600
ITEM: NUMBER OF ATOMS
100
ITEM: BOX BOUNDS ff ff ff
0.0000000000000000e+00 1.5850000000000000e+02
0.0000000000000000e+00 1.5850000000000000e+02
0.0000000000000000e+00 1.0000000000000000e+02
ITEM: ATOMS id type xs ys zs
86 1 0.613541 0.515394 0.52484
75 1 0.557871 0.528103 0.505125
78 1 0.577135 0.528232 0.503566
79 1 0.584438 0.528514 0.493576
77 1 0.571348 0.535835 0.501396
74 1 0.55028 0.526975 0.514406
80 1 0.589238 0.536844 0.495028
84 1 0.613343 0.528632 0.511196
83 1 0.607567 0.534929 0.504102
82 1 0.603585 0.530751 0.491827
81 1 0.596975 0.536696 0.485875
68 1 0.525729 0.506741 0.55777
87 1 0.607958 0.509014 0.532139
88 1 0.60277 0.503989 0.521993
89 1 0.596883 0.497994 0.529517
90 1 0.59176 0.492764 0.519554
91 1 0.585671 0.487078 0.527282
93 1 0.584621 0.475517 0.544163
92 1 0.590706 0.480901 0.535911
69 1 0.533336 0.508199 0.548642
70 1 0.531072 0.514815 0.538095
71 1 0.538661 0.516371 0.528969
72 1 0.545386 0.521446 0.536441
76 1 0.563633 0.535062 0.510505
73 1 0.553054 0.522618 0.527331
85 1 0.607905 0.521781 0.517656
95 1 0.583555 0.464296 0.561604
96 1 0.588527 0.458231 0.57055
97 1 0.592681 0.451321 0.562091
98 1 0.585991 0.445254 0.55661
99 1 0.582346 0.439856 0.567926
100 1 0.589094 0.433773 0.573127
61 1 0.497908 0.476152 0.599343
62 1 0.497721 0.485039 0.593365
60 1 0.490546 0.475199 0.609129
66 1 0.519917 0.497981 0.576362
67 1 0.527501 0.499314 0.567132
65 1 0.512052 0.496274 0.567909
64 1 0.50444 0.494822 0.577035
63 1 0.505255 0.48627 0.584009
94 1 0.589652 0.469471 0.553026
10 1 0.399426 0.328526 0.666612
8 1 0.413907 0.323251 0.660694
9 1 0.407417 0.330272 0.658457
11 1 0.401484 0.329995 0.681381
7 1 0.422688 0.326528 0.65703
4 1 0.431911 0.336542 0.625215
5 1 0.431602 0.333185 0.639543
6 1 0.422909 0.329407 0.642441
2 1 0.441717 0.348146 0.631852
3 1 0.440567 0.340505 0.622675
1 1 0.450387 0.352101 0.629404
42 1 0.522385 0.442062 0.626472
40 1 0.524286 0.430129 0.642601
41 1 0.518007 0.436548 0.63695
45 1 0.531336 0.46006 0.648168
46 1 0.536549 0.464473 0.637349
43 1 0.528992 0.447692 0.633176
44 1 0.524639 0.454502 0.641554
47 1 0.543001 0.470326 0.643935
48 1 0.538216 0.477198 0.651514
55 1 0.510654 0.481822 0.662459
51 1 0.533713 0.494934 0.655274
53 1 0.520321 0.4938 0.668216
50 1 0.539043 0.490052 0.665447
49 1 0.54431 0.483468 0.658002
52 1 0.52679 0.499965 0.662389
54 1 0.516082 0.488954 0.656796
56 1 0.507612 0.476287 0.650898
59 1 0.49234 0.480353 0.621749
58 1 0.49913 0.475871 0.629984
57 1 0.501452 0.481243 0.64214
12 1 0.403849 0.33929 0.683204
13 1 0.40832 0.340579 0.696616
14 1 0.412147 0.349448 0.696897
15 1 0.418714 0.350214 0.685702
16 1 0.426525 0.344864 0.68882
17 1 0.432188 0.349399 0.698918
18 1 0.436124 0.357116 0.69216
19 1 0.442464 0.361308 0.701583
20 1 0.449518 0.355026 0.704705
29 1 0.4746 0.379602 0.65857
30 1 0.479468 0.385961 0.650016
28 1 0.48051 0.372512 0.663071
27 1 0.475519 0.366039 0.671202
31 1 0.485919 0.390705 0.658579
37 1 0.508783 0.413188 0.655203
32 1 0.481368 0.396458 0.668546
34 1 0.492653 0.407361 0.667188
33 1 0.487888 0.401435 0.676609
36 1 0.503854 0.418356 0.665499
35 1 0.499236 0.412389 0.675042
38 1 0.51317 0.419118 0.645329
39 1 0.519808 0.424387 0.652649
21 1 0.456599 0.359469 0.712373
22 1 0.463452 0.353067 0.716036
23 1 0.467472 0.349406 0.703377
24 1 0.472644 0.35615 0.696096
26 1 0.481448 0.359009 0.675833
25 1 0.476381 0.352314 0.683369
