ITEM: TIMESTEP
700
ITEM: NUMBER OF ATOMS
100
ITEM: BOX BOUNDS ff ff ff
0.0000000000000000e+00 1.5850000000000000e+02
0.0000000000000000e+00 1.5850000000000000e+02
0.0000000000000000e+00 1.0000000000000000e+02
ITEM: ATOMS id type xs ys zs
86 1 0.612887 0.514162 0.526017
75 1 0.558576 0.526488 0.5065
78 1 0.577748 0.527674 0.505453
79 1 0.585174 0.52868 0.495812
77 1 0.571651 0.535076 0.503773
74 1 0.550937 0.524765 0.515433
80 1 0.589725 0.53703 0.498481
84 1 0.613618 0.527986 0.513891
83 1 0.608216 0.534837 0.507362
82 1 0.604153 0.531316 0.494648
81 1 0.59753 0.537545 0.489518
68 1 0.526645 0.504683 0.55944
87 1 0.606853 0.508022 0.532922
88 1 0.601004 0.503977 0.522577
89 1 0.594801 0.498172 0.529835
90 1 0.589049 0.493764 0.519733
91 1 0.582952 0.488009 0.527322
93 1 0.582136 0.475692 0.543019
92 1 0.588055 0.481432 0.535067
69 1 0.534292 0.506133 0.55039
70 1 0.531932 0.512403 0.539368
71 1 0.539529 0.513872 0.530201
72 1 0.546206 0.519115 0.5375
76 1 0.563869 0.533615 0.512521
73 1 0.553813 0.520419 0.528305
85 1 0.60773 0.521288 0.519735
95 1 0.581702 0.463698 0.55931
96 1 0.587116 0.457811 0.567903
97 1 0.592208 0.451823 0.558975
98 1 0.586422 0.445203 0.552603
99 1 0.583449 0.438892 0.563194
100 1 0.590927 0.433584 0.568001
61 1 0.499482 0.473463 0.600991
62 1 0.498973 0.482327 0.594943
60 1 0.491815 0.472 0.610005
66 1 0.520903 0.496184 0.578402
67 1 0.528561 0.497581 0.569353
65 1 0.513244 0.493942 0.569791
64 1 0.505579 0.492294 0.578719
63 1 0.506689 0.483917 0.586102
94 1 0.587459 0.469579 0.551309
10 1 0.399054 0.330727 0.668004
8 1 0.412787 0.323676 0.662161
9 1 0.406989 0.331197 0.659302
11 1 0.401598 0.332806 0.682399
7 1 0.421781 0.325909 0.657862
4 1 0.431081 0.334391 0.625047
5 1 0.430863 0.331291 0.639527
6 1 0.421979 0.328251 0.643043
2 1 0.441492 0.345573 0.631027
3 1 0.439859 0.33793 0.622045
1 1 0.450255 0.349176 0.628096
42 1 0.522596 0.442652 0.624316
40 1 0.523658 0.43122 0.641562
41 1 0.517749 0.437567 0.634816
45 1 0.530925 0.46113 0.645613
46 1 0.536145 0.465645 0.634916
43 1 0.529022 0.448435 0.631129
44 1 0.52444 0.455378 0.638892
47 1 0.542355 0.471678 0.64166
48 1 0.537289 0.478189 0.64958
55 1 0.509983 0.480043 0.664527
51 1 0.531438 0.495233 0.655228
53 1 0.518856 0.492747 0.669694
50 1 0.537639 0.490648 0.664466
49 1 0.54311 0.484716 0.65607
52 1 0.524478 0.499529 0.663394
54 1 0.514737 0.487544 0.658568
56 1 0.507425 0.47415 0.653116
59 1 0.49277 0.477167 0.622839
58 1 0.499495 0.473069 0.631699
57 1 0.501086 0.478582 0.643985
12 1 0.40496 0.341857 0.682741
13 1 0.409828 0.343405 0.695722
14 1 0.414438 0.351868 0.694661
15 1 0.42087 0.351474 0.68322
16 1 0.428241 0.345635 0.686772
17 1 0.434175 0.349969 0.696696
18 1 0.438656 0.35728 0.689668
19 1 0.444885 0.361476 0.699276
20 1 0.45173 0.355131 0.703135
29 1 0.474633 0.381472 0.659205
30 1 0.478793 0.388141 0.6503
28 1 0.481256 0.375072 0.66381
27 1 0.476944 0.368087 0.671837
31 1 0.4848 0.393647 0.658539
37 1 0.507063 0.415583 0.654854
32 1 0.479758 0.399335 0.667985
34 1 0.49063 0.410625 0.666179
33 1 0.485857 0.404906 0.675902
36 1 0.501908 0.421464 0.663835
35 1 0.496904 0.416142 0.673833
38 1 0.51205 0.420763 0.644656
39 1 0.518703 0.426078 0.65185
21 1 0.458499 0.359559 0.711507
22 1 0.465429 0.353272 0.715337
23 1 0.47004 0.350231 0.702777
24 1 0.474844 0.357551 0.696305
26 1 0.483558 0.361709 0.67651
25 1 0.479147 0.354381 0.683573
