ITEM: TIMESTEP
800
ITEM: NUMBER OF ATOMS
100
ITEM: BOX BOUNDS ff ff ff
0.0000000000000000e+00 1.5850000000000000e+02
0.0000000000000000e+00 1.5850000000000000e+02
0.0000000000000000e+00 1.0000000000000000e+02
ITEM: ATOMS id type xs ys zs
86 1 0.610086 0.51408 0.535893
75 1 0.559089 0.518148 0.519025
78 1 0.576951 0.524182 0.516721
79 1 0.583934 0.527254 0.507338
77 1 0.569265 0.529969 0.51565
74 1 0.552267 0.514512 0.528178
80 1 0.586899 0.536072 0.511491
84 1 0.611088 0.528755 0.526272
83 1 0.605646 0.535807 0.520426
82 1 0.601998 0.532862 0.507027
81 1 0.594571 0.538491 0.503012
68 1 0.533319 0.489613 0.572314
87 1 0.603722 0.50755 0.540895
88 1 0.597941 0.504938 0.52936
89 1 0.591253 0.49878 0.534504
90 1 0.585511 0.496106 0.522972
91 1 0.578907 0.489868 0.528146
93 1 0.576926 0.475505 0.538128
92 1 0.583414 0.482039 0.53354
69 1 0.541007 0.492488 0.564281
70 1 0.537743 0.497353 0.552113
71 1 0.54505 0.50062 0.543551
72 1 0.54929 0.508109 0.550472
76 1 0.562261 0.526544 0.524663
73 1 0.556227 0.511595 0.541365
85 1 0.605151 0.521702 0.530772
95 1 0.575315 0.460977 0.547724
96 1 0.580075 0.453543 0.553943
97 1 0.585991 0.449539 0.543636
98 1 0.580978 0.444655 0.533082
99 1 0.577431 0.43652 0.539118
100 1 0.584663 0.430456 0.542369
61 1 0.501938 0.460877 0.610205
62 1 0.503046 0.46889 0.601848
60 1 0.493269 0.460868 0.61695
66 1 0.527596 0.481044 0.59072
67 1 0.535734 0.483416 0.583413
65 1 0.521436 0.477349 0.58048
64 1 0.512583 0.476631 0.586461
63 1 0.512 0.469195 0.596142
94 1 0.581602 0.467925 0.544019
10 1 0.401949 0.338734 0.672379
8 1 0.413556 0.328314 0.668037
9 1 0.409214 0.336352 0.66301
11 1 0.405692 0.341782 0.685627
7 1 0.421744 0.326976 0.660217
4 1 0.426131 0.324207 0.622675
5 1 0.428032 0.324812 0.637632
6 1 0.419787 0.326094 0.645314
2 1 0.440174 0.330285 0.616475
3 1 0.434319 0.322676 0.614959
1 1 0.448366 0.328675 0.608807
42 1 0.524389 0.448435 0.614165
40 1 0.522747 0.437633 0.632402
41 1 0.518143 0.443976 0.623473
45 1 0.529981 0.467625 0.636121
46 1 0.534365 0.473127 0.625665
43 1 0.530016 0.454434 0.622218
44 1 0.524488 0.461088 0.629032
47 1 0.539071 0.480278 0.632695
48 1 0.532708 0.485043 0.641344
55 1 0.507858 0.47781 0.66874
51 1 0.522062 0.498286 0.650453
53 1 0.513049 0.492756 0.669131
50 1 0.530383 0.496482 0.657713
49 1 0.536705 0.492876 0.64766
52 1 0.515098 0.500477 0.660492
54 1 0.509979 0.485527 0.660202
56 1 0.506686 0.470237 0.659455
59 1 0.493118 0.4676 0.627927
58 1 0.49928 0.465114 0.639028
57 1 0.499756 0.472241 0.649293
12 1 0.410666 0.349896 0.683052
13 1 0.415867 0.352223 0.695389
14 1 0.421436 0.359816 0.692015
15 1 0.427748 0.357424 0.68103
16 1 0.4346 0.351527 0.686425
17 1 0.440722 0.356461 0.695332
18 1 0.445527 0.36288 0.686823
19 1 0.451774 0.367751 0.695567
20 1 0.458688 0.361784 0.700506
29 1 0.475594 0.389354 0.657603
30 1 0.478058 0.396269 0.64765
28 1 0.483404 0.384115 0.661121
27 1 0.480784 0.376591 0.669753
31 1 0.483696 0.402847 0.654405
37 1 0.503862 0.42471 0.64522
32 1 0.478456 0.408461 0.663689
34 1 0.488073 0.420449 0.658604
33 1 0.484199 0.415164 0.669849
36 1 0.498903 0.431344 0.653099
35 1 0.494205 0.42692 0.664485
38 1 0.509609 0.428977 0.63495
39 1 0.516499 0.433847 0.642389
21 1 0.465118 0.366829 0.708679
22 1 0.47246 0.36114 0.712913
23 1 0.477442 0.358385 0.700542
24 1 0.48145 0.366104 0.693896
26 1 0.488564 0.371325 0.673291
25 1 0.485722 0.363439 0.680855
