ITEM: TIMESTEP
500
ITEM: NUMBER OF ATOMS
100
ITEM: BOX BOUNDS ff ff ff
0.0000000000000000e+00 1.5850000000000000e+02
0.0000000000000000e+00 1.5850000000000000e+02
0.0000000000000000e+00 1.0000000000000000e+02
ITEM: ATOMS id type xs ys zs
86 1 0.614787 0.514159 0.517643
75 1 0.559347 0.529169 0.501795
78 1 0.578652 0.528808 0.499879
79 1 0.585732 0.528768 0.489474
77 1 0.572994 0.536517 0.497751
74 1 0.551847 0.528261 0.511311
80 1 0.590858 0.536925 0.490459
84 1 0.6152 0.527227 0.503545
83 1 0.609711 0.534029 0.497047
82 1 0.604712 0.530151 0.485484
81 1 0.598162 0.536499 0.480471
68 1 0.52721 0.510344 0.557064
87 1 0.609048 0.508735 0.526439
88 1 0.602385 0.504312 0.517873
89 1 0.596595 0.499229 0.527095
90 1 0.590202 0.494179 0.518903
91 1 0.584713 0.489079 0.528546
93 1 0.585209 0.478225 0.546792
92 1 0.590436 0.483269 0.53673
69 1 0.534648 0.511164 0.5474
70 1 0.532521 0.517725 0.536706
71 1 0.539916 0.518616 0.526979
72 1 0.547198 0.523247 0.533825
76 1 0.565332 0.535983 0.507019
73 1 0.554656 0.523826 0.524155
85 1 0.609497 0.521141 0.511239
95 1 0.586287 0.468034 0.565884
96 1 0.592447 0.463246 0.574919
97 1 0.59717 0.456517 0.566859
98 1 0.591322 0.449138 0.563396
99 1 0.589356 0.443978 0.575968
100 1 0.597329 0.439468 0.580829
61 1 0.496717 0.482513 0.599587
62 1 0.49779 0.491461 0.594072
60 1 0.489408 0.482436 0.609592
66 1 0.52121 0.502202 0.576158
67 1 0.528666 0.502884 0.566491
65 1 0.51304 0.50108 0.568187
64 1 0.505491 0.500446 0.577691
63 1 0.505323 0.491803 0.584506
94 1 0.591259 0.473125 0.555539
10 1 0.400594 0.330381 0.658936
8 1 0.415068 0.326833 0.65015
9 1 0.408596 0.333876 0.652364
11 1 0.402659 0.32812 0.673453
7 1 0.423683 0.330808 0.647318
4 1 0.431364 0.346753 0.621013
5 1 0.431764 0.340722 0.632933
6 1 0.423211 0.336417 0.634902
2 1 0.441577 0.356523 0.631984
3 1 0.439896 0.351176 0.619525
1 1 0.450162 0.360866 0.630735
42 1 0.516868 0.438567 0.626907
40 1 0.517478 0.427414 0.644586
41 1 0.511878 0.434061 0.637908
45 1 0.528313 0.456608 0.645432
46 1 0.533522 0.459745 0.633539
43 1 0.52416 0.443686 0.63285
44 1 0.520826 0.451474 0.640212
47 1 0.541138 0.464778 0.638532
48 1 0.538048 0.472737 0.645653
55 1 0.512613 0.484026 0.660493
51 1 0.537274 0.491327 0.648266
53 1 0.52504 0.493628 0.66346
50 1 0.542096 0.485666 0.658054
49 1 0.545541 0.477988 0.650559
52 1 0.532194 0.498003 0.655877
54 1 0.51905 0.489591 0.6533
56 1 0.507464 0.479285 0.649975
59 1 0.492202 0.486787 0.622511
58 1 0.498204 0.480914 0.630071
57 1 0.502048 0.485516 0.642054
12 1 0.405204 0.336221 0.680754
13 1 0.409223 0.334174 0.694285
14 1 0.41333 0.342223 0.699679
15 1 0.420342 0.34491 0.690021
16 1 0.427992 0.339065 0.691396
17 1 0.43342 0.341887 0.703221
18 1 0.437565 0.35029 0.699541
19 1 0.443282 0.353331 0.710876
20 1 0.450427 0.346998 0.713107
29 1 0.471997 0.374146 0.667834
30 1 0.475908 0.380573 0.658218
28 1 0.478885 0.368352 0.673395
27 1 0.474905 0.361286 0.681698
31 1 0.481443 0.386906 0.665741
37 1 0.501081 0.411452 0.657468
32 1 0.475924 0.392828 0.674101
34 1 0.485553 0.405083 0.670225
33 1 0.481513 0.399439 0.680865
36 1 0.49558 0.417022 0.666418
35 1 0.491298 0.411542 0.677031
38 1 0.50586 0.416921 0.647381
39 1 0.512337 0.422362 0.654759
21 1 0.457009 0.350934 0.722417
22 1 0.46416 0.344663 0.725112
23 1 0.468825 0.342501 0.712147
24 1 0.473317 0.350282 0.706488
26 1 0.481877 0.355483 0.686958
25 1 0.477969 0.347744 0.693701
