ITEM: TIMESTEP
1000
ITEM: NUMBER OF ATOMS
100
ITEM: BOX BOUNDS ff ff ff
0.0000000000000000e+00 1.5850000000000000e+02
0.0000000000000000e+00 1.5850000000000000e+02
0.0000000000000000e+00 1.0000000000000000e+02
ITEM: ATOMS id type xs ys zs
86 1 0.609598 0.511931 0.54185
75 1 0.559782 0.513747 0.525497
78 1 0.576889 0.521823 0.526779
79 1 0.583517 0.526678 0.518737
77 1 0.568602 0.526757 0.527073
74 1 0.552474 0.508832 0.531775
80 1 0.585637 0.535058 0.525591
84 1 0.61027 0.527601 0.537106
83 1 0.604579 0.535103 0.533776
82 1 0.600843 0.533807 0.5198
81 1 0.592933 0.539232 0.518037
68 1 0.530137 0.481473 0.567106
87 1 0.603339 0.504931 0.545384
88 1 0.597041 0.5039 0.533903
89 1 0.58998 0.497887 0.538147
90 1 0.58363 0.49696 0.526716
91 1 0.576309 0.491373 0.531265
93 1 0.572367 0.476908 0.53901
92 1 0.579659 0.48258 0.53462
69 1 0.538388 0.484468 0.560725
70 1 0.536333 0.489545 0.548117
71 1 0.544374 0.493372 0.542158
72 1 0.547637 0.500361 0.551366
76 1 0.561806 0.521497 0.534053
73 1 0.55524 0.504718 0.544904
85 1 0.604527 0.520012 0.539637
95 1 0.568679 0.462353 0.546664
96 1 0.572275 0.453764 0.550796
97 1 0.576387 0.4494 0.538749
98 1 0.569644 0.446517 0.528734
99 1 0.564673 0.439046 0.534447
100 1 0.570426 0.431304 0.535411
61 1 0.504013 0.453 0.614055
62 1 0.502689 0.459603 0.603093
60 1 0.496197 0.452415 0.622998
66 1 0.523731 0.473637 0.586238
67 1 0.532009 0.475813 0.579148
65 1 0.517904 0.468755 0.576798
64 1 0.509519 0.466998 0.583861
63 1 0.510896 0.460691 0.595223
94 1 0.575917 0.468276 0.542853
10 1 0.404357 0.335989 0.677979
8 1 0.416787 0.327007 0.671689
9 1 0.410595 0.333759 0.666843
11 1 0.409008 0.340692 0.689131
7 1 0.423531 0.325659 0.660962
4 1 0.42189 0.318443 0.62434
5 1 0.426066 0.321488 0.637254
6 1 0.419354 0.322502 0.648114
2 1 0.432305 0.32628 0.61035
3 1 0.428589 0.317588 0.613418
1 1 0.438983 0.325471 0.599376
42 1 0.532555 0.451746 0.615091
40 1 0.531211 0.442785 0.635806
41 1 0.526477 0.44691 0.624184
45 1 0.531892 0.47322 0.633044
46 1 0.536502 0.478896 0.623056
43 1 0.535899 0.459522 0.622444
44 1 0.528541 0.465388 0.625885
47 1 0.539596 0.48676 0.630428
48 1 0.53209 0.490374 0.638131
55 1 0.509434 0.477892 0.666728
51 1 0.518721 0.500566 0.646584
53 1 0.510842 0.493573 0.665372
50 1 0.527038 0.500907 0.654374
49 1 0.534278 0.498763 0.644843
52 1 0.511175 0.501263 0.656095
54 1 0.509637 0.485465 0.657245
56 1 0.509822 0.469718 0.658621
59 1 0.495408 0.46044 0.631419
58 1 0.502781 0.460947 0.641261
57 1 0.502142 0.46908 0.64942
12 1 0.412238 0.34912 0.683703
13 1 0.417415 0.353634 0.694458
14 1 0.42139 0.361576 0.688433
15 1 0.427955 0.359061 0.6779
16 1 0.43569 0.355092 0.684634
17 1 0.440792 0.361866 0.691987
18 1 0.444957 0.367724 0.681758
19 1 0.450009 0.374544 0.689028
20 1 0.457095 0.370423 0.697091
29 1 0.483333 0.391736 0.648289
30 1 0.488237 0.397569 0.638882
28 1 0.489544 0.387119 0.65744
27 1 0.484762 0.381016 0.666543
31 1 0.492217 0.404813 0.646791
37 1 0.513448 0.427627 0.64634
32 1 0.485365 0.410966 0.651397
34 1 0.495683 0.42282 0.650599
33 1 0.489454 0.418055 0.659508
36 1 0.506626 0.434078 0.649899
35 1 0.499993 0.429788 0.658683
38 1 0.520072 0.431726 0.637316
39 1 0.524767 0.438597 0.645057
21 1 0.462491 0.377282 0.703665
22 1 0.469553 0.373218 0.711884
23 1 0.475707 0.368594 0.702651
24 1 0.480518 0.374936 0.693973
26 1 0.491073 0.376452 0.675589
25 1 0.486401 0.370161 0.684504
