ITEM: TIMESTEP
1300
ITEM: NUMBER OF ATOMS
100
ITEM: BOX BOUNDS ff ff ff
0.0000000000000000e+00 1.5850000000000000e+02
0.0000000000000000e+00 1.5850000000000000e+02
0.0000000000000000e+00 1.0000000000000000e+02
ITEM: ATOMS id type xs ys zs
98 1 0.545637 0.447162 0.546961
99 1 0.537874 0.443555 0.55409
100 1 0.539983 0.434918 0.560074
93 1 0.558503 0.475921 0.544982
92 1 0.567402 0.47952 0.54341
95 1 0.549745 0.46505 0.556367
96 1 0.54975 0.457182 0.565252
97 1 0.55249 0.449457 0.557144
94 1 0.558781 0.467966 0.55363
70 1 0.536239 0.492868 0.550883
71 1 0.543779 0.497619 0.545035
72 1 0.546636 0.504588 0.554597
75 1 0.559287 0.516684 0.528016
74 1 0.551584 0.512907 0.535007
90 1 0.575785 0.49169 0.53471
91 1 0.567002 0.487713 0.535339
73 1 0.55424 0.509057 0.54839
86 1 0.598816 0.504384 0.562408
87 1 0.590306 0.499828 0.562755
88 1 0.587363 0.498007 0.548473
89 1 0.57865 0.493866 0.548905
78 1 0.577263 0.52053 0.530439
79 1 0.585475 0.523213 0.523636
77 1 0.570604 0.527465 0.529234
80 1 0.589052 0.531068 0.530506
76 1 0.562513 0.524305 0.535878
84 1 0.605739 0.518048 0.555567
83 1 0.604001 0.526353 0.548268
82 1 0.603173 0.524689 0.533237
81 1 0.598353 0.531951 0.52665
85 1 0.597603 0.512854 0.555368
2 1 0.429395 0.318679 0.612221
1 1 0.435551 0.315027 0.601959
62 1 0.512582 0.450034 0.595018
64 1 0.517753 0.459849 0.577399
63 1 0.520393 0.45437 0.589256
68 1 0.531639 0.482645 0.568317
66 1 0.527193 0.471564 0.584436
67 1 0.534471 0.477307 0.580228
65 1 0.525186 0.465368 0.57314
69 1 0.539004 0.488034 0.563369
7 1 0.422138 0.32741 0.661901
4 1 0.418401 0.315094 0.629243
5 1 0.423349 0.319374 0.640493
6 1 0.41719 0.323012 0.650767
3 1 0.424545 0.311481 0.618925
29 1 0.490656 0.397512 0.646324
30 1 0.49659 0.402756 0.637565
28 1 0.495841 0.391582 0.655187
27 1 0.489922 0.385971 0.663364
31 1 0.501785 0.4088 0.646212
32 1 0.49613 0.415826 0.651692
37 1 0.526593 0.42947 0.64628
34 1 0.508136 0.425977 0.651511
33 1 0.501447 0.421773 0.660297
36 1 0.520223 0.436058 0.651091
35 1 0.513569 0.431895 0.659993
40 1 0.543135 0.445293 0.633379
41 1 0.537718 0.448351 0.621666
38 1 0.532727 0.433613 0.636459
39 1 0.537395 0.440821 0.643441
61 1 0.515153 0.44484 0.607251
60 1 0.507304 0.442162 0.615082
55 1 0.508116 0.47424 0.652446
56 1 0.511718 0.466049 0.646724
59 1 0.503191 0.45 0.621223
58 1 0.50922 0.453961 0.631395
57 1 0.50543 0.462111 0.63695
42 1 0.542696 0.454258 0.612479
45 1 0.535619 0.475193 0.628422
46 1 0.539027 0.481539 0.618253
43 1 0.543691 0.462841 0.619298
44 1 0.534909 0.466499 0.621897
53 1 0.504563 0.489229 0.647248
52 1 0.503808 0.495931 0.636273
54 1 0.506973 0.48068 0.641199
47 1 0.538367 0.490401 0.624186
48 1 0.529213 0.491637 0.628575
51 1 0.512381 0.497239 0.629513
50 1 0.518769 0.500852 0.639486
49 1 0.527539 0.500695 0.633108
10 1 0.404844 0.34224 0.675384
9 1 0.410779 0.3381 0.665247
11 1 0.409956 0.347366 0.685519
8 1 0.415996 0.331198 0.67206
12 1 0.414069 0.354912 0.678527
13 1 0.419361 0.359883 0.688623
14 1 0.423852 0.367162 0.681507
15 1 0.430467 0.363664 0.671796
16 1 0.437913 0.359898 0.67953
17 1 0.443151 0.366953 0.685903
18 1 0.447659 0.371987 0.674958
19 1 0.452841 0.379062 0.681339
20 1 0.459634 0.37516 0.690269
21 1 0.464948 0.382134 0.696682
22 1 0.471627 0.378146 0.70574
23 1 0.477992 0.373234 0.697266
24 1 0.48347 0.379359 0.689215
26 1 0.495192 0.380328 0.67254
25 1 0.489422 0.374305 0.680232
