ITEM: TIMESTEP
0
ITEM: NUMBER OF ATOMS
100
ITEM: BOX BOUNDS ff ff ff
0.0000000000000000e+00 1.5850000000000000e+02
0.0000000000000000e+00 1.5850000000000000e+02
0.0000000000000000e+00 1.0000000000000000e+02
ITEM: ATOMS id type xs ys zs
86 1 0.611619 0.512632 0.499225
75 1 0.562931 0.537563 0.492223
78 1 0.580847 0.52707 0.495045
79 1 0.582845 0.529919 0.48178
77 1 0.576314 0.53532 0.497848
74 1 0.554325 0.531588 0.489763
80 1 0.590787 0.535597 0.479242
84 1 0.612224 0.529089 0.498893
83 1 0.606607 0.534281 0.490368
82 1 0.604868 0.531736 0.475782
81 1 0.596449 0.534858 0.466898
68 1 0.542524 0.51693 0.55306
87 1 0.612125 0.503686 0.501714
88 1 0.602726 0.500587 0.50037
89 1 0.602135 0.496398 0.515254
90 1 0.592862 0.498581 0.518607
91 1 0.591567 0.497273 0.534788
93 1 0.591443 0.487405 0.553922
92 1 0.597084 0.490582 0.542696
69 1 0.544805 0.519331 0.538729
70 1 0.53785 0.523484 0.530341
71 1 0.543071 0.526181 0.5149
72 1 0.55125 0.526299 0.515953
76 1 0.568988 0.534305 0.504217
73 1 0.556101 0.525239 0.501925
85 1 0.606984 0.521531 0.501384
95 1 0.593908 0.479703 0.577347
96 1 0.599488 0.476345 0.589641
97 1 0.608028 0.473784 0.588507
98 1 0.611476 0.466581 0.581391
99 1 0.608107 0.455831 0.585019
100 1 0.613704 0.456158 0.596821
61 1 0.509157 0.500165 0.603472
62 1 0.51463 0.506106 0.593781
60 1 0.499547 0.498616 0.606868
66 1 0.534475 0.507104 0.567345
67 1 0.542753 0.508434 0.560805
65 1 0.526183 0.512244 0.567775
64 1 0.525738 0.512199 0.583053
63 1 0.52316 0.502558 0.589091
94 1 0.595858 0.486318 0.567253
10 1 0.412679 0.336117 0.645752
8 1 0.427665 0.340376 0.636394
9 1 0.42063 0.344452 0.643784
11 1 0.416991 0.327299 0.652628
7 1 0.434618 0.346792 0.634819
4 1 0.425578 0.371983 0.623342
5 1 0.431978 0.363808 0.625239
6 1 0.429673 0.353568 0.628251
2 1 0.429965 0.386575 0.629265
3 1 0.425285 0.381149 0.618488
1 1 0.431725 0.396051 0.62093
42 1 0.481497 0.430955 0.642224
40 1 0.490692 0.428766 0.660718
41 1 0.483637 0.434662 0.656532
45 1 0.500152 0.441814 0.628275
46 1 0.50679 0.438273 0.619321
43 1 0.488586 0.430036 0.631434
44 1 0.490154 0.44017 0.625828
47 1 0.513418 0.43831 0.630966
48 1 0.518377 0.445982 0.638573
55 1 0.516641 0.481777 0.650805
51 1 0.525687 0.461176 0.622622
53 1 0.526588 0.474493 0.635081
50 1 0.529937 0.458698 0.633919
49 1 0.527613 0.448856 0.633564
52 1 0.528465 0.470303 0.622954
54 1 0.517734 0.474966 0.639215
56 1 0.508932 0.48749 0.651274
59 1 0.498065 0.495507 0.620983
58 1 0.504263 0.491386 0.632083
57 1 0.510626 0.495608 0.64347
12 1 0.416727 0.328174 0.667439
13 1 0.426498 0.327312 0.670991
14 1 0.42973 0.336582 0.676493
15 1 0.439225 0.339795 0.67986
16 1 0.443167 0.331483 0.676171
17 1 0.444961 0.328264 0.687571
18 1 0.447518 0.335593 0.696239
19 1 0.45295 0.335794 0.708123
20 1 0.458114 0.327661 0.711466
29 1 0.473496 0.365652 0.70491
30 1 0.477983 0.371637 0.696408
28 1 0.474046 0.362551 0.720294
27 1 0.483309 0.35983 0.721949
31 1 0.474084 0.38037 0.701021
37 1 0.477938 0.410751 0.675301
32 1 0.467868 0.381403 0.689012
34 1 0.466893 0.398463 0.693324
33 1 0.462553 0.389239 0.695899
36 1 0.476211 0.410779 0.691468
35 1 0.475575 0.400821 0.691545
38 1 0.481725 0.419214 0.667685
39 1 0.488032 0.4232 0.673873
21 1 0.459786 0.327799 0.725772
22 1 0.468118 0.330836 0.73118
23 1 0.473495 0.336262 0.723593
24 1 0.475422 0.340938 0.736411
26 1 0.484551 0.3568 0.736586
25 1 0.48299 0.346607 0.737277
