ITEM: TIMESTEP
300
ITEM: NUMBER OF ATOMS
100
ITEM: BOX BOUNDS ff ff ff
0.0000000000000000e+00 1.5850000000000000e+02
0.0000000000000000e+00 1.5850000000000000e+02
0.0000000000000000e+00 1.0000000000000000e+02
ITEM: ATOMS id type xs ys zs
86 1 0.620756 0.517338 0.504846
75 1 0.562039 0.52858 0.495398
78 1 0.581384 0.527803 0.491033
79 1 0.587683 0.526839 0.479541
77 1 0.575518 0.535251 0.488162
74 1 0.55486 0.528751 0.505632
80 1 0.592516 0.535096 0.477457
84 1 0.618584 0.528393 0.48726
83 1 0.611921 0.533914 0.480502
82 1 0.606292 0.528463 0.471551
81 1 0.598998 0.533838 0.466291
68 1 0.529702 0.516509 0.554997
87 1 0.616412 0.512765 0.516411
88 1 0.60942 0.507067 0.510973
89 1 0.604661 0.503156 0.522741
90 1 0.597713 0.4973 0.517592
91 1 0.592816 0.493827 0.529563
93 1 0.594102 0.485663 0.55084
92 1 0.598801 0.488687 0.538372
69 1 0.536677 0.515433 0.544556
70 1 0.535478 0.522002 0.533507
71 1 0.542695 0.521417 0.523384
72 1 0.550614 0.52559 0.529118
76 1 0.568436 0.535527 0.498555
73 1 0.557786 0.524951 0.518916
85 1 0.614274 0.523003 0.497943
95 1 0.595549 0.477929 0.572474
96 1 0.601574 0.472963 0.581505
97 1 0.603726 0.464445 0.575106
98 1 0.596024 0.458602 0.575398
99 1 0.594234 0.45571 0.589736
100 1 0.601293 0.44984 0.594501
61 1 0.495122 0.498008 0.601826
62 1 0.49952 0.506258 0.597991
60 1 0.490198 0.499388 0.614803
66 1 0.523102 0.510386 0.575483
67 1 0.529627 0.508918 0.564444
65 1 0.514487 0.512255 0.569245
64 1 0.507951 0.513447 0.580347
63 1 0.505278 0.504863 0.585918
94 1 0.600179 0.480743 0.559806
10 1 0.41339 0.332614 0.646737
8 1 0.427277 0.337366 0.637106
9 1 0.419047 0.340219 0.643736
11 1 0.417219 0.327326 0.658014
7 1 0.432892 0.345077 0.634724
4 1 0.429568 0.364972 0.61328
5 1 0.43392 0.359012 0.62314
6 1 0.428574 0.351046 0.624841
2 1 0.434485 0.377853 0.625392
3 1 0.434663 0.373135 0.612046
1 1 0.439453 0.386089 0.624093
42 1 0.492963 0.430724 0.631627
40 1 0.496856 0.419108 0.647315
41 1 0.491552 0.427116 0.645657
45 1 0.513319 0.443512 0.637664
46 1 0.515935 0.445858 0.62341
43 1 0.502169 0.433469 0.629956
44 1 0.503898 0.441413 0.638221
47 1 0.525469 0.447381 0.623168
48 1 0.527577 0.454945 0.632062
55 1 0.513593 0.478474 0.653372
51 1 0.537017 0.471608 0.635184
53 1 0.529441 0.478535 0.653979
50 1 0.539085 0.463373 0.642484
49 1 0.537154 0.455884 0.633332
52 1 0.537258 0.478998 0.645032
54 1 0.521632 0.480021 0.645289
56 1 0.506017 0.479539 0.644054
59 1 0.496274 0.498894 0.626664
58 1 0.498287 0.489604 0.629369
57 1 0.505027 0.488838 0.640245
12 1 0.417403 0.33255 0.670888
13 1 0.421418 0.327411 0.682175
14 1 0.422776 0.333141 0.694318
15 1 0.4295 0.339746 0.690917
16 1 0.438188 0.335546 0.689921
17 1 0.441646 0.333714 0.703918
18 1 0.443946 0.342088 0.71059
19 1 0.448037 0.340516 0.724214
20 1 0.455949 0.335136 0.72227
29 1 0.462341 0.370646 0.697389
30 1 0.461291 0.378677 0.689053
28 1 0.470636 0.366315 0.693573
27 1 0.470986 0.357513 0.699808
31 1 0.468448 0.384884 0.69202
37 1 0.484632 0.406236 0.673546
32 1 0.46723 0.389065 0.705688
34 1 0.475365 0.401279 0.697035
33 1 0.474817 0.394795 0.708328
36 1 0.484366 0.411989 0.685829
35 1 0.483474 0.406452 0.698281
38 1 0.486092 0.411389 0.660817
39 1 0.495063 0.41495 0.660828
21 1 0.46245 0.337456 0.732989
22 1 0.470543 0.332297 0.731137
23 1 0.47416 0.333679 0.717103
24 1 0.47677 0.342891 0.714985
26 1 0.479561 0.353465 0.696914
25 1 0.479041 0.344063 0.70024
