ITEM: TIMESTEP
1400
ITEM: NUMBER OF ATOMS
100
ITEM: BOX BOUNDS ff ff ff
0.0000000000000000e+00 1.5850000000000000e+02
0.0000000000000000e+00 1.5850000000000000e+02
0.0000000000000000e+00 1.0000000000000000e+02
ITEM: ATOMS id type xs ys zs
98 1 0.543973 0.446343 0.559115
99 1 0.536497 0.44321 0.56746
100 1 0.539275 0.435934 0.576517
93 1 0.555981 0.476258 0.551074
92 1 0.565 0.479401 0.548932
95 1 0.547094 0.465698 0.563019
96 1 0.547088 0.458818 0.573752
97 1 0.550545 0.450508 0.568196
94 1 0.55614 0.468594 0.560358
70 1 0.533467 0.49568 0.549402
71 1 0.541314 0.499998 0.543724
72 1 0.544331 0.506939 0.553219
75 1 0.558872 0.517668 0.527674
74 1 0.550586 0.514771 0.534023
90 1 0.573902 0.490722 0.538952
91 1 0.564854 0.487585 0.540834
73 1 0.552455 0.510754 0.547608
86 1 0.599695 0.500583 0.563107
87 1 0.590887 0.496779 0.564747
88 1 0.586881 0.495534 0.550966
89 1 0.577836 0.492348 0.552681
78 1 0.577164 0.519261 0.532309
79 1 0.585768 0.520666 0.525762
77 1 0.571447 0.526893 0.530006
80 1 0.59029 0.528182 0.532187
76 1 0.562752 0.524865 0.535801
84 1 0.607241 0.513727 0.555413
83 1 0.605735 0.522152 0.548342
82 1 0.603903 0.520538 0.533522
81 1 0.59947 0.528208 0.527433
85 1 0.598736 0.509213 0.556464
2 1 0.430822 0.318024 0.615444
1 1 0.437145 0.313352 0.606565
62 1 0.511658 0.451362 0.593369
64 1 0.515259 0.462361 0.576445
63 1 0.518744 0.456832 0.587687
68 1 0.528288 0.485834 0.567041
66 1 0.52363 0.474901 0.58345
67 1 0.530814 0.480827 0.579474
65 1 0.522069 0.468613 0.572107
69 1 0.535844 0.491005 0.56223
7 1 0.421699 0.329513 0.662729
4 1 0.4185 0.316337 0.630805
5 1 0.423218 0.320519 0.642387
6 1 0.416941 0.325239 0.651277
3 1 0.424802 0.311667 0.62189
29 1 0.492553 0.395454 0.643949
30 1 0.498261 0.400801 0.634969
28 1 0.497979 0.389766 0.652848
27 1 0.492284 0.384197 0.661482
31 1 0.503322 0.407078 0.643403
32 1 0.497475 0.413913 0.648987
37 1 0.527392 0.428381 0.643377
34 1 0.509159 0.424444 0.648699
33 1 0.502629 0.420039 0.657526
36 1 0.520917 0.434847 0.648252
35 1 0.514381 0.430541 0.65718
40 1 0.543298 0.444906 0.630996
41 1 0.537568 0.448004 0.619705
38 1 0.533456 0.432735 0.633687
39 1 0.53788 0.439984 0.640948
61 1 0.515185 0.445953 0.604746
60 1 0.507937 0.442135 0.612839
55 1 0.507486 0.473897 0.650546
56 1 0.511287 0.465633 0.645452
59 1 0.503283 0.449261 0.620075
58 1 0.509233 0.45342 0.630173
57 1 0.505068 0.461306 0.63599
42 1 0.542271 0.454151 0.610586
45 1 0.535002 0.474895 0.626896
46 1 0.538469 0.481225 0.616748
43 1 0.543182 0.462666 0.617641
44 1 0.534366 0.466196 0.620367
53 1 0.503474 0.488585 0.644036
52 1 0.502701 0.494918 0.632521
54 1 0.506244 0.479938 0.638773
47 1 0.537545 0.490131 0.622429
48 1 0.528282 0.491251 0.626287
51 1 0.511355 0.496316 0.626078
50 1 0.517398 0.500475 0.636053
49 1 0.526299 0.500372 0.630151
10 1 0.405351 0.346467 0.67227
9 1 0.411349 0.341381 0.663385
11 1 0.410425 0.351466 0.682604
8 1 0.415449 0.334315 0.671555
12 1 0.415577 0.358298 0.675508
13 1 0.420928 0.363083 0.685744
14 1 0.426266 0.369734 0.678552
15 1 0.432867 0.365433 0.669668
16 1 0.439753 0.36133 0.67824
17 1 0.44532 0.368123 0.684621
18 1 0.450425 0.372633 0.673769
19 1 0.455977 0.379402 0.680208
20 1 0.46243 0.375173 0.689394
21 1 0.468132 0.38189 0.695667
22 1 0.474648 0.377636 0.70473
23 1 0.480767 0.372412 0.696266
24 1 0.486361 0.378269 0.687924
26 1 0.49776 0.378775 0.670692
25 1 0.492122 0.372958 0.678999
