ITEM: TIMESTEP
1100
ITEM: NUMBER OF ATOMS
100
ITEM: BOX BOUNDS ff ff ff
0.0000000000000000e+00 1.5850000000000000e+02
0.0000000000000000e+00 1.5850000000000000e+02
0.0000000000000000e+00 1.0000000000000000e+02
ITEM: ATOMS id type xs ys zs
98 1 0.55714 0.447656 0.533441
99 1 0.549519 0.442377 0.537811
100 1 0.552533 0.433898 0.543383
93 1 0.565585 0.477428 0.536365
92 1 0.57432 0.481491 0.535512
95 1 0.557172 0.465465 0.545484
96 1 0.557435 0.457238 0.553528
97 1 0.562252 0.450459 0.545688
94 1 0.566022 0.469289 0.544546
70 1 0.538215 0.486857 0.549315
71 1 0.545923 0.491513 0.543841
72 1 0.548864 0.498125 0.55397
75 1 0.559504 0.513275 0.529091
74 1 0.552628 0.507777 0.535341
90 1 0.582214 0.494138 0.527098
91 1 0.573606 0.489807 0.527835
73 1 0.555999 0.503328 0.547821
86 1 0.604147 0.509118 0.553818
87 1 0.596868 0.5028 0.554548
88 1 0.593444 0.501266 0.54045
89 1 0.585328 0.496073 0.541244
78 1 0.576313 0.521214 0.530563
79 1 0.583116 0.526353 0.523408
77 1 0.568144 0.526292 0.531633
80 1 0.585281 0.534273 0.531496
76 1 0.561423 0.520766 0.538246
84 1 0.607238 0.524448 0.54871
83 1 0.602904 0.532587 0.544168
82 1 0.600672 0.531927 0.529304
81 1 0.593477 0.53803 0.526
85 1 0.600518 0.517526 0.54903
2 1 0.427874 0.3227 0.608793
1 1 0.433533 0.32138 0.59657
62 1 0.507629 0.452711 0.601596
64 1 0.514062 0.459909 0.581847
63 1 0.515887 0.454583 0.594268
68 1 0.532725 0.47755 0.567274
66 1 0.526821 0.468711 0.585535
67 1 0.534973 0.472128 0.579399
65 1 0.5224 0.462804 0.575673
69 1 0.540674 0.481688 0.561625
7 1 0.423883 0.325265 0.661012
4 1 0.41944 0.31545 0.626509
5 1 0.424544 0.319542 0.637767
6 1 0.418831 0.320983 0.649879
3 1 0.425115 0.31413 0.614303
29 1 0.48834 0.395306 0.646622
30 1 0.494708 0.399981 0.637803
28 1 0.493027 0.389882 0.656888
27 1 0.486675 0.38495 0.665345
31 1 0.499612 0.406474 0.646069
32 1 0.493767 0.413685 0.650309
37 1 0.523652 0.42878 0.644876
34 1 0.505462 0.424292 0.649866
33 1 0.498744 0.420096 0.658608
36 1 0.516936 0.435099 0.649406
35 1 0.510392 0.430701 0.658226
40 1 0.539948 0.445287 0.633498
41 1 0.534511 0.448855 0.62218
38 1 0.529839 0.433249 0.635514
39 1 0.534221 0.440409 0.64308
61 1 0.509514 0.447427 0.614047
60 1 0.501553 0.446606 0.622609
55 1 0.509487 0.477093 0.661246
56 1 0.511613 0.468803 0.654159
59 1 0.499429 0.455158 0.628887
58 1 0.506448 0.457704 0.638586
57 1 0.504319 0.466188 0.645048
42 1 0.539642 0.454793 0.613276
45 1 0.53435 0.475784 0.630729
46 1 0.537353 0.482068 0.620127
43 1 0.541293 0.463066 0.620713
44 1 0.53284 0.467188 0.62423
53 1 0.507441 0.492591 0.658184
52 1 0.506438 0.499792 0.648089
54 1 0.508256 0.484116 0.650928
47 1 0.538282 0.490764 0.626577
48 1 0.529941 0.492846 0.633503
51 1 0.514308 0.500372 0.639259
50 1 0.52202 0.502854 0.647606
49 1 0.529927 0.501852 0.638988
10 1 0.40558 0.33551 0.680535
9 1 0.41116 0.333184 0.668595
11 1 0.410562 0.340985 0.690357
8 1 0.418092 0.327037 0.672923
12 1 0.412862 0.349354 0.683642
13 1 0.417967 0.354816 0.693327
14 1 0.421015 0.362749 0.686048
15 1 0.42759 0.360306 0.675493
16 1 0.435799 0.357558 0.682327
17 1 0.440312 0.365261 0.688194
18 1 0.443921 0.370629 0.676825
19 1 0.448278 0.378413 0.682662
20 1 0.455356 0.375546 0.692002
21 1 0.460152 0.383225 0.697355
22 1 0.46678 0.380262 0.707441
23 1 0.473406 0.374797 0.700432
24 1 0.479097 0.380269 0.691612
26 1 0.491452 0.37991 0.675977
25 1 0.485283 0.374559 0.684129
