ITEM: TIMESTEP
900
ITEM: NUMBER OF ATOMS
100
ITEM: BOX BOUNDS ff ff ff
0.0000000000000000e+00 1.5850000000000000e+02
0.0000000000000000e+00 1.5850000000000000e+02
0.0000000000000000e+00 1.0000000000000000e+02
ITEM: ATOMS id type xs ys zs
86 1 0.609652 0.513751 0.538802
75 1 0.560844 0.513871 0.524519
78 1 0.577485 0.522462 0.52249
79 1 0.58372 0.526962 0.51325
77 1 0.569106 0.527225 0.52279
74 1 0.554056 0.50915 0.532417
80 1 0.585824 0.535738 0.518728
84 1 0.610322 0.529007 0.531476
83 1 0.604671 0.536283 0.52691
82 1 0.600998 0.534158 0.513147
81 1 0.593084 0.539439 0.510509
68 1 0.531533 0.484791 0.571611
87 1 0.603413 0.506916 0.543143
88 1 0.597292 0.505144 0.53165
89 1 0.590549 0.498885 0.536263
90 1 0.584378 0.497224 0.524803
91 1 0.577661 0.490948 0.529451
93 1 0.575342 0.476135 0.537354
92 1 0.581952 0.482604 0.533003
69 1 0.540093 0.487141 0.565571
70 1 0.538503 0.491571 0.552212
71 1 0.546768 0.494561 0.545858
72 1 0.550327 0.502037 0.553729
76 1 0.562797 0.522293 0.531334
73 1 0.557554 0.506048 0.54581
85 1 0.604567 0.521611 0.535141
95 1 0.573338 0.461273 0.545205
96 1 0.577892 0.453142 0.549262
97 1 0.582333 0.449214 0.53715
98 1 0.575878 0.445486 0.527387
99 1 0.571905 0.437502 0.533288
100 1 0.578506 0.430466 0.534034
61 1 0.501322 0.456651 0.612771
62 1 0.501168 0.463879 0.602619
60 1 0.493061 0.456424 0.620687
66 1 0.523967 0.477446 0.590055
67 1 0.532658 0.479254 0.584018
65 1 0.51842 0.47303 0.579661
64 1 0.509584 0.471603 0.585408
63 1 0.509872 0.464735 0.596137
94 1 0.579838 0.467955 0.541229
10 1 0.404283 0.339102 0.673532
8 1 0.416055 0.328972 0.668783
9 1 0.411183 0.336634 0.66355
11 1 0.408355 0.342551 0.686289
7 1 0.42331 0.326911 0.659235
4 1 0.423514 0.319792 0.622446
5 1 0.427035 0.322241 0.636148
6 1 0.419752 0.324368 0.645602
2 1 0.436287 0.325289 0.610604
3 1 0.430799 0.317503 0.613085
1 1 0.443554 0.322963 0.601229
42 1 0.527881 0.449943 0.614475
40 1 0.526355 0.439588 0.633398
41 1 0.521654 0.445254 0.623507
45 1 0.53072 0.470044 0.635685
46 1 0.535784 0.475537 0.626007
43 1 0.532536 0.456667 0.622609
44 1 0.52616 0.463118 0.627872
47 1 0.539697 0.482891 0.633716
48 1 0.53259 0.487439 0.641114
55 1 0.507551 0.478888 0.667273
51 1 0.520627 0.499791 0.647879
53 1 0.51117 0.494238 0.666009
50 1 0.528628 0.49901 0.656381
49 1 0.535737 0.495604 0.647563
52 1 0.512955 0.501704 0.656687
54 1 0.50911 0.486325 0.657839
56 1 0.507061 0.470755 0.659079
59 1 0.49267 0.464079 0.629993
58 1 0.499623 0.463347 0.640552
57 1 0.499743 0.471319 0.64916
12 1 0.412832 0.350871 0.683126
13 1 0.417667 0.353935 0.695452
14 1 0.422592 0.361919 0.691828
15 1 0.429344 0.359778 0.681402
16 1 0.436524 0.354682 0.687733
17 1 0.442065 0.360437 0.696334
18 1 0.446472 0.366859 0.687289
19 1 0.452332 0.372449 0.695598
20 1 0.459461 0.367052 0.701338
29 1 0.477276 0.39139 0.652342
30 1 0.48037 0.398019 0.642353
28 1 0.484794 0.386175 0.65724
27 1 0.481717 0.37925 0.666706
31 1 0.485806 0.404598 0.649516
37 1 0.507585 0.425982 0.644786
32 1 0.480234 0.410392 0.658011
34 1 0.490695 0.421974 0.654966
33 1 0.485822 0.41678 0.665293
36 1 0.50212 0.432615 0.651755
35 1 0.49657 0.42817 0.662098
38 1 0.513683 0.430254 0.635059
39 1 0.519959 0.435623 0.642972
21 1 0.465872 0.372758 0.708365
22 1 0.473335 0.367496 0.713361
23 1 0.478062 0.363703 0.701438
24 1 0.48198 0.370758 0.693023
26 1 0.489264 0.374063 0.671545
25 1 0.4861 0.366952 0.68058
