read_data	PE_cl100.txt
Reading data file ...
  orthogonal box = (0 0 0) to (158.5 158.5 100)
  1 by 1 by 1 MPI processor grid
  reading atoms ...
  100 atoms
  scanning bonds ...
  1 = max bonds/atom
  scanning angles ...
  1 = max angles/atom
  scanning dihedrals ...
  1 = max dihedrals/atom
  reading bonds ...
  99 bonds
  reading angles ...
  98 angles
  reading dihedrals ...
  97 dihedrals
Finding 1-2 1-3 1-4 neighbors ...
  special bond factors lj:    0        0        0       
  special bond factors coul:  0        0        0       
     2 = max # of 1-2 neighbors
     2 = max # of 1-3 neighbors
     4 = max # of 1-4 neighbors
     6 = max # of special neighbors
  special bonds CPU = 0.006 seconds
  read_data CPU = 0.017 seconds

# Dreiding potential information
neighbor	0.4 bin
neigh_modify	every 10 one 10000
bond_style      harmonic
bond_coeff	1 350 1.53
angle_style     harmonic
angle_coeff	1 60 109.5
dihedral_style	multi/harmonic
dihedral_coeff	1 1.73 -4.49 0.776 6.99 0.0
pair_style	lj/cut 10.5
pair_coeff	1 1 0.112 4.01 10.5

compute csym all centro/atom fcc
compute peratom all pe/atom



#####################################################
# Equilibration (Langevin dynamics at 5000 K)

velocity 	all create 5000.0 1231
fix		1 all nve/limit 0.05
fix		2 all langevin 5000.0 5000.0 10.0 904297
thermo_style	custom step temp
thermo          10000
timestep	1
run		1000000
Generated 0 of 0 mixed pair_coeff terms from geometric mixing rule
Neighbor list info ...
  update: every = 10 steps, delay = 0 steps, check = yes
  max neighbors/atom: 10000, page size: 100000
  master list distance cutoff = 10.9
  ghost atom cutoff = 10.9
  binsize = 5.45, bins = 30 30 19
  2 neighbor lists, perpetual/occasional/extra = 1 1 0
  (1) pair lj/cut, perpetual
      attributes: half, newton on
      pair build: half/bin/newton
      stencil: half/bin/3d
      bin: standard
  (2) compute centro/atom, occasional
      attributes: full, newton on
      pair build: full/bin
      stencil: full/bin/3d
      bin: standard
Per MPI rank memory allocation (min/avg/max) = 8.099 | 8.099 | 8.099 Mbytes
   Step          Temp     
         0   5000         
     10000   3934.1613    
     20000   5035.255     
     30000   4535.3234    
     40000   5403.6106    
     50000   4616.2205    
     60000   4894.3709    
     70000   4638.3326    
     80000   4611.6806    
     90000   4560.8301    
    100000   5366.5108    
    110000   4252.2521    
    120000   4918.7427    
    130000   4666.6628    
    140000   4976.5845    
    150000   4566.3911    
    160000   4311.5498    
    170000   4423.2553    
    180000   4811.2372    
    190000   4260.6865    
    200000   4908.1944    
    210000   4983.5976    
    220000   4728.7477    
    230000   4675.2037    
    240000   5409.9213    
    250000   4487.0434    
    260000   3803.1244    
    270000   4350.1691    
    280000   4160.9036    
    290000   5122.4635    
    300000   4792.7193    
    310000   4526.9076    
    320000   4368.2875    
    330000   3822.1104    
    340000   4767.2301    
    350000   4531.6312    
    360000   4594.5435    
    370000   4830.8911    
    380000   4441.3959    
    390000   4745.1107    
    400000   4466.5018    
    410000   4506.4627    
    420000   4606.1683    
    430000   4476.6027    
    440000   5203.8966    
    450000   5018.5795    
    460000   4843.4993    
    470000   5033.8152    
    480000   5662.5885    
    490000   5176.0849    
    500000   5058.0978    
    510000   4759.6036    
    520000   4557.9438    
    530000   4540.728     
    540000   5445.3935    
    550000   4969.742     
    560000   4430.0449    
    570000   4499.9604    
    580000   4426.8593    
    590000   4697.6363    
    600000   4841.1709    
    610000   5150.299     
    620000   4926.243     
    630000   5004.1575    
    640000   4552.6252    
    650000   5131.9688    
    660000   5898.2973    
    670000   4861.6978    
    680000   4748.3864    
    690000   4828.3919    
    700000   4408.5966    
    710000   5301.1555    
    720000   4741.738     
    730000   4550.9008    
    740000   4722.8148    
    750000   4664.9899    
    760000   4419.6908    
    770000   4704.5351    
    780000   4983.4733    
    790000   5073.505     
    800000   4967.7609    
    810000   4943.8277    
    820000   4143.0403    
    830000   4686.326     
    840000   4757.5795    
    850000   4385.8608    
    860000   4647.2413    
    870000   4635.4987    
    880000   4367.6457    
    890000   4329.775     
    900000   5088.0755    
    910000   4492.8256    
    920000   4637.6386    
    930000   4753.9857    
    940000   4773.7743    
    950000   4396.9734    
    960000   4837.4353    
    970000   4936.2735    
    980000   4997.7101    
    990000   4834.2482    
   1000000   4205.5854    
Loop time of 45.87 on 1 procs for 1000000 steps with 100 atoms

Performance: 1883.586 ns/day, 0.013 hours/ns, 21800.764 timesteps/s, 2.180 Matom-step/s
97.5% CPU use with 1 MPI tasks x no OpenMP threads

MPI task timing breakdown:
Section |  min time  |  avg time  |  max time  |%varavg| %total
---------------------------------------------------------------
Pair    | 15.357     | 15.357     | 15.357     |   0.0 | 33.48
Bond    | 17.686     | 17.686     | 17.686     |   0.0 | 38.56
Neigh   | 7.7429     | 7.7429     | 7.7429     |   0.0 | 16.88
Comm    | 0.28708    | 0.28708    | 0.28708    |   0.0 |  0.63
Output  | 0.0028404  | 0.0028404  | 0.0028404  |   0.0 |  0.01
Modify  | 4.2439     | 4.2439     | 4.2439     |   0.0 |  9.25
Other   |            | 0.5508     |            |       |  1.20

Nlocal:            100 ave         100 max         100 min
Histogram: 1 0 0 0 0 0 0 0 0 0
Nghost:              0 ave           0 max           0 min
Histogram: 1 0 0 0 0 0 0 0 0 0
Neighs:           1171 ave        1171 max        1171 min
Histogram: 1 0 0 0 0 0 0 0 0 0
FullNghs:            0 ave           0 max           0 min
Histogram: 1 0 0 0 0 0 0 0 0 0

Total # of neighbors = 1171
Ave neighs/atom = 11.71
Ave special neighs/atom = 5.88
Neighbor list builds = 100000
Dangerous builds = 100000
unfix 1
unfix 2
write_restart 	restart.${simname}.dreiding1
write_restart 	restart.PE_cl100.dreiding1
System init for write_restart ...
Generated 0 of 0 mixed pair_coeff terms from geometric mixing rule


#####################################################
# Define Settings
compute eng all pe/atom
compute eatoms all reduce sum c_eng

#####################################################
# Minimization

dump mydmp all atom 100 dump.lammpstrj

reset_timestep 0
fix 1 all nvt temp 500.0 500.0 100.0
thermo 20
thermo_style custom step pe lx ly lz press pxx pyy pzz c_eatoms
min_style cg
minimize 1e-25 1e-25 500000 1000000
Switching to 'neigh_modify every 1 delay 0 check yes' setting during minimization
Generated 0 of 0 mixed pair_coeff terms from geometric mixing rule
Per MPI rank memory allocation (min/avg/max) = 9.224 | 9.224 | 9.224 Mbytes
   Step         PotEng           Lx             Ly             Lz           Press           Pxx            Pyy            Pzz          c_eatoms   
         0   1006.5844      158.5          158.5          100            8.7898762      4.8862552      19.516386      1.9669874      1006.5844    
        20   106.10961      158.5          158.5          100            25.280123      26.932153      24.638364      24.269851      106.10961    
        40   60.155448      158.5          158.5          100            24.558033      29.227964      23.379552      21.066582      60.155448    
        60   36.397339      158.5          158.5          100            23.284827      28.294661      21.558717      20.001105      36.397339    
        80   21.686129      158.5          158.5          100            23.155908      28.302502      20.615053      20.550168      21.686129    
       100   18.424132      158.5          158.5          100            22.64363       28.236904      19.889135      19.804851      18.424132    
       120   16.442961      158.5          158.5          100            22.761919      28.523879      20.098729      19.66315       16.442961    
       140   14.956566      158.5          158.5          100            22.613953      28.44035       19.889622      19.511885      14.956566    
       160   13.800864      158.5          158.5          100            22.613148      28.499044      19.730941      19.609459      13.800864    
       180   13.254775      158.5          158.5          100            22.544073      28.464165      19.952658      19.215396      13.254775    
       200   12.398533      158.5          158.5          100            22.584249      28.60978       19.783521      19.359444      12.398533    
       220   11.60942       158.5          158.5          100            22.693589      28.559993      19.871291      19.649482      11.60942     
       240   11.007595      158.5          158.5          100            22.621447      28.332324      19.925279      19.606739      11.007595    
       260   10.375715      158.5          158.5          100            22.458307      28.157865      19.864267      19.35279       10.375715    
       280   9.3036855      158.5          158.5          100            22.286168      27.685603      19.981688      19.191214      9.3036855    
       300   8.7648415      158.5          158.5          100            22.544196      28.137946      20.050934      19.443708      8.7648415    
       320   8.3985216      158.5          158.5          100            22.50535       28.11806       19.926513      19.471476      8.3985216    
       340   8.1308928      158.5          158.5          100            22.496713      28.134612      19.888498      19.467027      8.1308928    
       360   7.874881       158.5          158.5          100            22.567587      28.30657       19.868249      19.527941      7.874881     
       380   7.6707314      158.5          158.5          100            22.566253      28.391912      19.822064      19.484783      7.6707314    
       400   7.4836633      158.5          158.5          100            22.639108      28.488614      19.929099      19.49961       7.4836633    
       420   7.3291062      158.5          158.5          100            22.679063      28.438985      20.050188      19.548016      7.3291062    
       440   7.2005286      158.5          158.5          100            22.627383      28.30733       20.054156      19.520664      7.2005286    
       460   7.0841147      158.5          158.5          100            22.601765      28.319666      20.093953      19.391676      7.0841147    
       480   6.9667016      158.5          158.5          100            22.518247      28.098391      19.977014      19.479335      6.9667016    
       500   6.8786273      158.5          158.5          100            22.557064      28.115592      19.977501      19.578098      6.8786273    
       520   6.7826603      158.5          158.5          100            22.555798      28.109217      19.917178      19.640999      6.7826603    
       540   6.6685104      158.5          158.5          100            22.520985      28.073528      19.897876      19.59155       6.6685104    
       560   6.5155602      158.5          158.5          100            22.597116      28.158302      20.015187      19.617857      6.5155602    
       580   6.3404158      158.5          158.5          100            22.481636      28.065306      19.896373      19.483229      6.3404158    
       600   6.1861075      158.5          158.5          100            22.457104      28.016514      19.845498      19.5093        6.1861075    
       620   6.1217084      158.5          158.5          100            22.562134      28.102696      19.998445      19.58526       6.1217084    
       640   6.0514371      158.5          158.5          100            22.539265      28.098732      19.949709      19.569353      6.0514371    
       660   5.991127       158.5          158.5          100            22.452586      28.019825      19.896892      19.44104       5.991127     
       680   5.9217229      158.5          158.5          100            22.559153      28.09308       20.01299       19.57139       5.9217229    
       700   5.8469916      158.5          158.5          100            22.518884      28.108569      19.949366      19.498718      5.8469916    
       720   5.7239692      158.5          158.5          100            22.510813      28.122094      19.994055      19.416289      5.7239692    
       740   5.1615275      158.5          158.5          100            22.476071      28.291079      19.884285      19.252848      5.1615275    
       760   4.8993811      158.5          158.5          100            22.734817      28.467957      20.158098      19.578396      4.8993811    
       780   4.2375871      158.5          158.5          100            22.504547      28.095052      19.947241      19.471346      4.2375871    
       800   2.7591219      158.5          158.5          100            22.774007      28.372506      20.181419      19.768097      2.7591219    
       820   1.9652534      158.5          158.5          100            22.640983      28.414699      19.994503      19.513749      1.9652534    
       840   1.6584283      158.5          158.5          100            22.617012      28.242325      20.022355      19.586355      1.6584283    
       860   1.3698884      158.5          158.5          100            22.529816      28.075417      19.967978      19.546053      1.3698884    
       880   1.1195196      158.5          158.5          100            22.469494      28.064579      19.78319       19.560713      1.1195196    
       900   0.88012495     158.5          158.5          100            22.485093      28.247721      19.786326      19.421233      0.88012495   
       920   0.79878277     158.5          158.5          100            22.439263      28.08436       19.796805      19.436623      0.79878277   
       940   0.65350376     158.5          158.5          100            22.519149      28.113833      19.938692      19.504921      0.65350376   
       960   0.50454255     158.5          158.5          100            22.532999      28.081378      19.926361      19.591257      0.50454255   
       980   0.39717892     158.5          158.5          100            22.654858      28.208226      20.119372      19.636977      0.39717892   
      1000   0.29628246     158.5          158.5          100            22.55996       28.207263      19.979452      19.493164      0.29628246   
      1020   0.21091288     158.5          158.5          100            22.566672      28.217278      20.030501      19.452236      0.21091288   
      1040   0.19911678     158.5          158.5          100            22.577904      28.237394      19.996909      19.499408      0.19911678   
      1060   0.16102025     158.5          158.5          100            22.590645      28.243403      19.992422      19.536109      0.16102025   
      1080   0.1531309      158.5          158.5          100            22.567021      28.228798      19.97258       19.499684      0.1531309    
      1100   0.14165185     158.5          158.5          100            22.558853      28.212633      19.970401      19.493525      0.14165185   
      1120   0.13282303     158.5          158.5          100            22.57341       28.21895       19.986035      19.515245      0.13282303   
      1140   0.12453783     158.5          158.5          100            22.561602      28.216764      19.977455      19.490585      0.12453783   
      1160   0.090031494    158.5          158.5          100            22.52531       28.173752      19.90283       19.499347      0.090031494  
      1180   0.030694417    158.5          158.5          100            22.538113      28.166814      19.958212      19.489314      0.030694417  
      1200   0.025717417    158.5          158.5          100            22.558715      28.185857      19.975594      19.514695      0.025717417  
      1220   0.019990717    158.5          158.5          100            22.541455      28.173359      19.973242      19.477763      0.019990717  
      1240   0.016948756    158.5          158.5          100            22.525866      28.154023      19.944519      19.479057      0.016948756  
      1260   0.014762592    158.5          158.5          100            22.54944       28.174342      19.968387      19.505589      0.014762592  
      1280  -0.11309588     158.5          158.5          100            22.567195      28.195292      19.988208      19.518086     -0.11309588   
      1300  -0.11310151     158.5          158.5          100            22.567194      28.195273      19.988214      19.518095     -0.11310151   
      1320  -0.11310151     158.5          158.5          100            22.567194      28.195273      19.988214      19.518095     -0.11310151   
      1322  -0.11310151     158.5          158.5          100            22.567194      28.195273      19.988214      19.518095     -0.11310151   
Loop time of 0.231836 on 1 procs for 1322 steps with 100 atoms

96.3% CPU use with 1 MPI tasks x no OpenMP threads

Minimization stats:
  Stopping criterion = energy tolerance
  Energy initial, next-to-last, final = 
      1006.58442579612 -0.113101505455436 -0.113101505455436
  Force two-norm initial, final = 1236.8859 1.5296892
  Force max component initial, final = 281.217 0.5146464
  Final line search alpha, max atom move = 0.048577043 0.025
  Iterations, force evaluations = 1322 3251

MPI task timing breakdown:
Section |  min time  |  avg time  |  max time  |%varavg| %total
---------------------------------------------------------------
Pair    | 0.14109    | 0.14109    | 0.14109    |   0.0 | 60.86
Bond    | 0.065579   | 0.065579   | 0.065579   |   0.0 | 28.29
Neigh   | 0.0086383  | 0.0086383  | 0.0086383  |   0.0 |  3.73
Comm    | 0.00071307 | 0.00071307 | 0.00071307 |   0.0 |  0.31
Output  | 0.0072694  | 0.0072694  | 0.0072694  |   0.0 |  3.14
Modify  | 0          | 0          | 0          |   0.0 |  0.00
Other   |            | 0.008548   |            |       |  3.69

Nlocal:            100 ave         100 max         100 min
Histogram: 1 0 0 0 0 0 0 0 0 0
Nghost:              0 ave           0 max           0 min
Histogram: 1 0 0 0 0 0 0 0 0 0
Neighs:           1439 ave        1439 max        1439 min
Histogram: 1 0 0 0 0 0 0 0 0 0
FullNghs:            0 ave           0 max           0 min
Histogram: 1 0 0 0 0 0 0 0 0 0

Total # of neighbors = 1439
Ave neighs/atom = 14.39
Ave special neighs/atom = 5.88
Neighbor list builds = 93
Dangerous builds = 0

run 10000000
Generated 0 of 0 mixed pair_coeff terms from geometric mixing rule
Per MPI rank memory allocation (min/avg/max) = 9.228 | 9.228 | 9.228 Mbytes
   Step         PotEng           Lx             Ly             Lz           Press           Pxx            Pyy            Pzz          c_eatoms   
      1322  -0.11310151     158.5          158.5          100            22.567194      28.195273      19.988214      19.518095     -0.11310151   
      1340   498.00698      158.5          158.5          100           -4.0310572      4.6268427     -5.6025121     -11.117502      498.00698    
      1360   508.15664      158.5          158.5          100            2.2146388     -0.2778428      7.6626342     -0.74087506     508.15664    
      1380   463.51809      158.5          158.5          100            2.4678707     -0.51823568     8.2058219     -0.28397403     463.51809    
      1400   369.94994      158.5          158.5          100           -3.6992709     -6.0097785     -5.0465183     -0.041515851    369.94994    
      1420   364.66114      158.5          158.5          100            9.979437       14.607596      6.0275168      9.3031984      364.66114    
      1440   366.04589      158.5          158.5          100            1.4937623      6.0289444      3.2302616     -4.7779191      366.04589    
      1460   356.15642      158.5          158.5          100           -0.84514106    -6.546527       2.5428443      1.4682595      356.15642    
      1480   282.16901      158.5          158.5          100           -1.09024        3.5015358     -6.0326496     -0.73960627     282.16901    
      1500   280.58899      158.5          158.5          100           -0.26278864     0.31523588    -4.7513419      3.6477402      280.58899    
      1520   265.97213      158.5          158.5          100           -2.6149465     -11.169478      7.998744      -4.6741056      265.97213    
      1540   280.45168      158.5          158.5          100           -1.0029509     -2.0208315      1.1422615     -2.1302826      280.45168    
      1560   200.3593       158.5          158.5          100            0.080432469    2.8344511     -0.10993306    -2.4832206      200.3593     
      1580   201.10979      158.5          158.5          100           -0.759312      -0.55795647     0.6632565     -2.383236       201.10979    
      1600   189.30144      158.5          158.5          100            1.2956381      7.3140891     -4.4063892      0.97921435     189.30144    
      1620   192.83026      158.5          158.5          100            3.6123173      5.4641301      6.1573218     -0.78450005     192.83026    
      1640   177.36184      158.5          158.5          100           -4.0777448     -8.4434163     -3.6026055     -0.1872125      177.36184    
      1660   178.49173      158.5          158.5          100            3.5996408      0.99816104    -1.6914825      11.492244      178.49173    
      1680   160.139        158.5          158.5          100           -1.3349728     -5.0827865     -1.217611       2.2954792      160.139      
      1700   164.39257      158.5          158.5          100           -1.4410267     -11.543759      5.7109516      1.5097274      164.39257    
      1720   153.0417       158.5          158.5          100            7.334108       5.0365333      5.0718285      11.893962      153.0417     
      1740   157.3306       158.5          158.5          100           -3.8214425      2.6011939     -7.6116877     -6.4538336      157.3306     
      1760   135.50737      158.5          158.5          100            2.8975178      6.5119923      4.6324876     -2.4519264      135.50737    
      1780   145.38795      158.5          158.5          100           -1.938804      -0.62352308    -2.4930406     -2.6998484      145.38795    
      1800   150.95528      158.5          158.5          100           -5.7774108     -5.2695991     -6.9799072     -5.0827261      150.95528    
      1820   136.71369      158.5          158.5          100            1.8776027      2.943523      -0.43559463     3.1248796      136.71369    
      1840   140.63742      158.5          158.5          100           -5.5649923     -7.531681      -7.4765448     -1.6867511      140.63742    
      1860   129.92934      158.5          158.5          100            1.7500963      0.74124533     5.0970619     -0.5880182      129.92934    
      1880   136.8996       158.5          158.5          100            3.4409676      2.9296621      7.3415252      0.051715546    136.8996     
      1900   147.33032      158.5          158.5          100           -0.67256363    -5.8875075     -4.3357105      8.2055271      147.33032    
      1920   129.39371      158.5          158.5          100            2.0422491      1.9882668     -1.0670171      5.2054978      129.39371    
      1940   130.64881      158.5          158.5          100           -1.8880599      0.011723959    2.2254934     -7.9013969      130.64881    
      1960   132.14349      158.5          158.5          100            0.57122581     1.8908985      3.6900444     -3.8672655      132.14349    
      1980   166.8164       158.5          158.5          100            1.2750818      5.9245142     -1.1024002     -0.99686855     166.8164     
      2000   150.35247      158.5          158.5          100            2.2872541      5.8154002     -1.4801869      2.5265491      150.35247    
      2020   149.05905      158.5          158.5          100            6.2872794      3.2697664      10.056755      5.5353165      149.05905    
      2040   157.83609      158.5          158.5          100           -0.93740537    -0.25303868     1.2966306     -3.8558081      157.83609    
      2060   137.96325      158.5          158.5          100           -3.436372      -4.400693      -6.3806075      0.47218457     137.96325    
      2080   145.08345      158.5          158.5          100           -0.36912216     0.48560793    -3.2523728      1.6593984      145.08345    
      2100   162.45879      158.5          158.5          100           -0.96340269    -1.5358631     -3.4360391      2.0816942      162.45879    
      2120   153.27576      158.5          158.5          100            1.1689009      0.024833105    3.5765566     -0.094686833    153.27576    
      2140   163.46972      158.5          158.5          100            3.8064094      9.4378914      3.9255916     -1.9442548      163.46972    
      2160   164.1439       158.5          158.5          100           -5.8167152     -3.1239479     -8.7489226     -5.5772751      164.1439     
      2180   162.75216      158.5          158.5          100           -2.2464551     -4.3162806     -2.468682       0.045597443    162.75216    
      2200   153.00864      158.5          158.5          100            1.5218327     -4.6631456      4.7121555      4.5164881      153.00864    
      2220   148.6081       158.5          158.5          100           -6.3017189     -10.973869     -3.8136814     -4.1176067      148.6081     
      2240   156.07564      158.5          158.5          100            2.1776291      5.1125736     -2.8996133      4.319927       156.07564    
      2260   149.56825      158.5          158.5          100           -0.39718027     4.1308586     -2.8908395     -2.4315598      149.56825    
      2280   157.79479      158.5          158.5          100           -6.788074      -7.3196399     -2.8372973     -10.207285      157.79479    
      2300   141.17669      158.5          158.5          100            7.2688481      6.0444066      9.3883022      6.3738354      141.17669    
      2320   153.53258      158.5          158.5          100           -3.9963052     -5.9113468     -4.4273099     -1.650259       153.53258    
      2340   133.81995      158.5          158.5          100           -2.8025626     -2.7168172     -2.8527781     -2.8380925      133.81995    
      2360   157.84205      158.5          158.5          100            4.2836333      4.1494233      7.2564742      1.4450025      157.84205    
      2380   166.41136      158.5          158.5          100           -9.519801      -8.3450327     -9.0624461     -11.151924      166.41136    
      2400   152.01665      158.5          158.5          100            3.7850261      5.8457948      3.1603057      2.3489777      152.01665    
      2420   157.35236      158.5          158.5          100            4.3256127      0.55113594     4.2965759      8.1291262      157.35236    
      2440   152.35182      158.5          158.5          100           -0.99034413    -4.9626831     -0.92732992     2.9189806      152.35182    
      2460   154.5388       158.5          158.5          100            11.609441      14.197167      13.898404      6.7327511      154.5388     
      2480   160.5222       158.5          158.5          100           -0.82068162     1.6028941      1.5188892     -5.5838282      160.5222     
      2500   142.39997      158.5          158.5          100           -2.4662642     -4.5875702      1.0706539     -3.8818763      142.39997    
      2520   162.20544      158.5          158.5          100            1.6877936      5.7435836     -0.37381125    -0.30639154     162.20544    
      2540   158.31759      158.5          158.5          100           -10.630041     -12.291395     -14.829483     -4.7692435      158.31759    
      2560   180.57862      158.5          158.5          100           -2.8576169     -7.4143202     -2.6774819      1.5189515      180.57862    
      2580   155.98617      158.5          158.5          100           -6.2111762     -11.319224     -1.9558002     -5.3585043      155.98617    
      2600   163.69322      158.5          158.5          100           -3.2968553     -5.2446658     -7.2492786      2.6033785      163.69322    
      2620   166.63838      158.5          158.5          100            5.4003013      8.4134265      5.5519315      2.2355459      166.63838    
      2640   180.65122      158.5          158.5          100           -1.7769564     -5.0413233      7.7523733     -8.0419192      180.65122    
      2660   168.03688      158.5          158.5          100            9.5812095      7.1220082      6.2450804      15.37654       168.03688    
      2680   158.78674      158.5          158.5          100            0.017649855    3.0667429     -3.590892       0.57709866     158.78674    
      2700   154.37487      158.5          158.5          100           -1.8392497      1.7344566      4.3137833     -11.565989      154.37487    
      2720   173.86437      158.5          158.5          100            2.2049692      0.75139312     3.9632461      1.9002683      173.86437    
      2740   145.50496      158.5          158.5          100           -7.0904243     -7.3101377     -8.3926483     -5.568487       145.50496    
      2760   151.26029      158.5          158.5          100            1.5726053     -3.4157329      1.2785528      6.8549959      151.26029    
      2780   162.44131      158.5          158.5          100           -0.69774875    -2.8295175     -5.1036521      5.8399233      162.44131    
      2800   171.4656       158.5          158.5          100           -4.9178808     -2.3933413     -7.7450069     -4.6152942      171.4656     
      2820   142.3131       158.5          158.5          100            6.49487        5.3318815      7.1983116      6.9544171      142.3131     
      2840   166.57112      158.5          158.5          100           -2.4163553     -8.5763193      5.1708296     -3.8435762      166.57112    
      2860   148.82009      158.5          158.5          100           -1.3005829      3.9669479     -4.3162439     -3.5524527      148.82009    
      2880   149.1262       158.5          158.5          100            7.7921115      8.0153139      6.7530556      8.607965       149.1262     
      2900   164.46446      158.5          158.5          100           -4.9447355     -12.758101     -3.1223562      1.0462506      164.46446    
      2920   150.93098      158.5          158.5          100            0.037348909    2.9579075     -3.5847992      0.73893838     150.93098    
      2940   138.61594      158.5          158.5          100            2.5071779      8.4638502     -1.7042888      0.76197219     138.61594    
      2960   153.67195      158.5          158.5          100           -6.2591948     -8.078706      -7.7048669     -2.9940114      153.67195    
      2980   128.45617      158.5          158.5          100            4.3543597      1.2564297      7.3528328      4.4538166      128.45617    
      3000   151.43842      158.5          158.5          100           -0.34948693    -2.579573      -2.7577982      4.2889105      151.43842    
      3020   153.58952      158.5          158.5          100           -2.9741814     -5.0348027     -1.3065086     -2.5812328      153.58952    
      3040   150.29266      158.5          158.5          100            4.6038507      7.1476108      5.2528749      1.4110665      150.29266    
      3060   146.8384       158.5          158.5          100           -7.1747776     -1.0663397     -11.745882     -8.712111       146.8384     
      3080   168.44873      158.5          158.5          100            1.9934371      1.1578388      0.93258903     3.8898834      168.44873    
      3100   154.82578      158.5          158.5          100            2.192811      -2.6220115      3.8928583      5.3075863      154.82578    
      3120   161.19716      158.5          158.5          100           -4.462236      -1.3823861     -0.93113753    -11.073184      161.19716    
      3140   162.38172      158.5          158.5          100            8.0670834      6.0021714      6.2082616      11.990817      162.38172    
      3160   187.57047      158.5          158.5          100           -4.7325804     -11.21097      -6.2850593      3.2982877      187.57047    
      3180   149.55359      158.5          158.5          100            2.3797786      4.2731393      5.0867028     -2.2205063      149.55359    
      3200   175.12568      158.5          158.5          100            1.7383766      8.7036162      2.9989344     -6.4874207      175.12568    
      3220   165.82984      158.5          158.5          100           -8.1670021     -9.3131216     -8.3092003     -6.8786844      165.82984    
      3240   182.29534      158.5          158.5          100            0.74945305    -2.0274792      0.47388968     3.8019487      182.29534    
      3260   148.61119      158.5          158.5          100           -2.8303126     -3.3009275      1.6575945     -6.847605       148.61119    
      3280   186.09059      158.5          158.5          100            2.1852772     -1.9881151      6.0963915      2.4475552      186.09059    
      3300   171.25216      158.5          158.5          100            2.577096      -0.046177423   -4.3701333      12.147599      171.25216    
      3320   154.60702      158.5          158.5          100           -0.38378115    -1.1328327     -0.20191564     0.18340488     154.60702    
      3340   160.5146       158.5          158.5          100            4.417769       2.3875884      12.715772     -1.8500537      160.5146     
      3360   182.04433      158.5          158.5          100           -0.21836884     5.2055731     -3.6476167     -2.213063       182.04433    
      3380   166.84218      158.5          158.5          100            3.8471787      13.090944     -7.2291507      5.6797424      166.84218    
      3400   172.16842      158.5          158.5          100            1.932307      -9.615048       6.7677856      8.6441834      172.16842    
      3420   161.00676      158.5          158.5          100           -4.0685972     -10.965592      3.3437213     -4.5839212      161.00676    
      3440   133.31185      158.5          158.5          100            4.2435548      11.301469      1.2741931      0.15500238     133.31185    
      3460   146.5231       158.5          158.5          100           -1.9607439     -1.285265      -2.7188815     -1.8780852      146.5231     
      3480   149.29582      158.5          158.5          100           -2.2738071     -2.7475158     -0.17949545    -3.8944101      149.29582    
      3500   163.12621      158.5          158.5          100            3.589396       8.818269      -0.053498374    2.0034176      163.12621    
      3520   155.8349       158.5          158.5          100           -1.7848598     -2.5410283     -6.2135663      3.400015       155.8349     
      3540   135.80629      158.5          158.5          100           -0.85788871     0.76211541    -5.7090579      2.3732764      135.80629    
      3560   152.77096      158.5          158.5          100            3.7594391      2.0696126      3.3304296      5.8782753      152.77096    
      3580   150.36972      158.5          158.5          100           -3.9767677     -7.372471       3.0558999     -7.6137319      150.36972    
      3600   148.23111      158.5          158.5          100           -1.593881       6.2806166     -1.0175239     -10.044736      148.23111    
      3620   140.24972      158.5          158.5          100            3.5981173      11.147198     -2.6076005      2.2547541      140.24972    
      3640   158.34699      158.5          158.5          100           -4.3510902     -10.417527     -4.1236068      1.4878631      158.34699    
      3660   137.32479      158.5          158.5          100            5.062652       0.37455382     9.6147335      5.1986687      137.32479    
      3680   146.7627       158.5          158.5          100            0.51891511     4.0844509      1.2652594     -3.7929649      146.7627     
      3700   158.79974      158.5          158.5          100           -2.9183589     -0.57035387    -8.9257406      0.74101768     158.79974    
      3720   145.96866      158.5          158.5          100            5.6925831      1.3986485      3.8958058      11.783295      145.96866    
      3740   146.02106      158.5          158.5          100           -3.7184454     -3.1888208      0.18966271    -8.1561782      146.02106    
      3760   167.39397      158.5          158.5          100           -0.1378339      4.4553998      0.2560043     -5.1249058      167.39397    
      3780   154.56579      158.5          158.5          100            0.57917901     3.4727353     -6.698091       4.9628927      154.56579    
      3800   143.12399      158.5          158.5          100           -3.4812112     -4.3358888     -5.0408004     -1.0669445      143.12399    
      3820   162.15005      158.5          158.5          100            0.15304323     0.37122565     5.2304974     -5.1425933      162.15005    
      3840   145.92678      158.5          158.5          100           -2.0256396      0.65096999    -1.6717994     -5.0560893      145.92678    
      3860   169.22602      158.5          158.5          100           -1.7523293      0.0055688291  -8.6644914      3.4019348      169.22602    
      3880   133.85804      158.5          158.5          100           -0.014892823   -3.9661974     -0.64279715     4.5643161      133.85804    
      3900   160.35687      158.5          158.5          100           -0.9311981     -4.3032322      5.2950561     -3.7854182      160.35687    
      3920   151.195        158.5          158.5          100           -2.4781147     -4.3669058      2.9317665     -5.9992048      151.195      
      3940   175.78112      158.5          158.5          100           -3.4898837     -5.1332423     -0.12228246    -5.2141262      175.78112    
      3960   139.52335      158.5          158.5          100           -2.1990046      0.96544558    -7.1545344     -0.40792489     139.52335    
      3980   152.12087      158.5          158.5          100            2.4231227      2.7139683      0.89967122     3.6557285      152.12087    
      4000   146.10478      158.5          158.5          100            3.9534115      0.50661155     12.494941     -1.1413186      146.10478    
      4020   151.21219      158.5          158.5          100            1.2036976      6.3978745     -0.17544849    -2.6113332      151.21219    
      4040   136.09978      158.5          158.5          100            10.228638      12.146754      4.7503655      13.788796      136.09978    
      4060   148.00581      158.5          158.5          100           -1.2375072     -8.0296238      4.623655      -0.30655293     148.00581    
      4080   132.93306      158.5          158.5          100           -0.0078365341   1.8632231      1.7103569     -3.5970895      132.93306    
      4100   143.03754      158.5          158.5          100            0.44295754    -0.045355242   -2.5037326      3.8779604      143.03754    
      4120   149.16084      158.5          158.5          100           -4.8436631     -8.9479291     -3.0055339     -2.5775264      149.16084    
      4140   135.58724      158.5          158.5          100            1.2322603      3.9085851     -0.52908318     0.31727898     135.58724    
      4160   148.61941      158.5          158.5          100            0.089037315   -1.9100215      0.71760564     1.4595278      148.61941    
      4180   143.85137      158.5          158.5          100           -1.0432532      2.5703738     -1.8952308     -3.8049025      143.85137    
      4200   140.68453      158.5          158.5          100           -3.2368418      3.2596201     -7.3267472     -5.6433983      140.68453    
      4220   154.70681      158.5          158.5          100            3.5480037     -0.31089575     2.6565371      8.2983699      154.70681    
      4240   143.49213      158.5          158.5          100           -2.6826886     -6.4995617      2.3333775     -3.8818817      143.49213    
      4260   137.71882      158.5          158.5          100           -3.1998216      4.7501983     -4.2517611     -10.097902      137.71882    
      4280   139.8356       158.5          158.5          100            2.8345175      5.5042278      0.78447734     2.2148474      139.8356     
      4300   154.9553       158.5          158.5          100           -7.4588566     -11.876339     -7.3526288     -3.1476019      154.9553     
      4320   164.90061      158.5          158.5          100            5.3363726      3.6745892      5.3046917      7.0298369      164.90061    
      4340   145.36563      158.5          158.5          100            5.5351531      11.443067      9.6596071     -4.4972153      145.36563    
      4360   159.15924      158.5          158.5          100           -2.4097297      2.0935149     -3.2162221     -6.1064818      159.15924    
      4380   163.28758      158.5          158.5          100            5.8617391     -5.027216       3.5185429      19.09389       163.28758    
      4400   166.34311      158.5          158.5          100           -4.6059995     -6.7000245     -4.8491474     -2.2688265      166.34311    
      4420   165.6385       158.5          158.5          100           -4.22702        5.0910262     -5.3232969     -12.448789      165.6385     
      4440   164.94424      158.5          158.5          100           -5.2168632     -0.27428371    -7.2902099     -8.0860961      164.94424    
      4460   163.80285      158.5          158.5          100           -6.4155441     -10.692839     -5.8932077     -2.6605854      163.80285    
      4480   168.09379      158.5          158.5          100           -0.52361486    -0.79336832     2.4116903     -3.1891665      168.09379    
      4500   167.10627      158.5          158.5          100            1.664075       2.7249196     -0.52620987     2.7935151      167.10627    
      4520   157.21704      158.5          158.5          100            3.7867607      0.78010546    -1.6556993      12.235876      157.21704    
      4540   155.12742      158.5          158.5          100            2.7806812      0.86634723     4.4515881      3.0241083      155.12742    
      4560   166.95183      158.5          158.5          100            3.0925949      4.5790897      5.2284999     -0.52980486     166.95183    
      4580   160.36089      158.5          158.5          100           -2.5871779      0.35032931    -7.8178274     -0.29403551     160.36089    
      4600   167.54719      158.5          158.5          100            2.4526395      1.9351544      1.3955173      4.0272467      167.54719    
      4620   134.4908       158.5          158.5          100            6.2329023      4.0108349      7.479468       7.2084039      134.4908     
      4640   163.30438      158.5          158.5          100           -1.894439      -2.3120145     -5.3530345      1.9817321      163.30438    
      4660   131.08083      158.5          158.5          100            4.7536782      4.7701608      8.1151056      1.3757682      131.08083    
      4680   158.03548      158.5          158.5          100           -3.1228667     -2.2858066      2.2596936     -9.3424872      158.03548    
      4700   150.55704      158.5          158.5          100           -4.4444098     -5.8584167     -7.2536091     -0.22120349     150.55704    
      4720   142.84429      158.5          158.5          100            0.9650794     -0.5069977     -3.554877       6.9571129      142.84429    
      4740   139.40083      158.5          158.5          100           -2.0130444     -0.27017432    -0.92304235    -4.8459165      139.40083    
      4760   151.72602      158.5          158.5          100            6.1649133      11.529834      4.8443885      2.1205175      151.72602    
      4780   148.4775       158.5          158.5          100            3.2814222      1.9906845      5.2200415      2.6335407      148.4775     
      4800   151.3711       158.5          158.5          100           -5.0142639     -7.9426502     -1.6178127     -5.4823288      151.3711     
      4820   140.90504      158.5          158.5          100            6.2619046      8.1169078      3.4830106      7.1857953      140.90504    
      4840   142.12771      158.5          158.5          100            0.97776478    -0.030130676   -0.28386079     3.2472858      142.12771    
      4860   151.91588      158.5          158.5          100           -6.3775899     -11.684598     -0.89040179    -6.5577704      151.91588    
      4880   158.99112      158.5          158.5          100            5.3571936      3.683894       8.0914994      4.2961874      158.99112    
      4900   165.99054      158.5          158.5          100           -5.9117283     -0.12516699    -13.999307     -3.6107111      165.99054    
      4920   153.69419      158.5          158.5          100           -4.1055528      1.6820369     -8.6696935     -5.3290019      153.69419    
      4940   157.6857       158.5          158.5          100            1.466475      -1.7119992      11.456192     -5.3447682      157.6857     
      4960   150.43972      158.5          158.5          100           -4.9470982     -5.2615879     -3.2554463     -6.3242605      150.43972    
      4980   157.68113      158.5          158.5          100            4.1344249      4.768988      -5.9552411      13.589528      157.68113    
      5000   148.26072      158.5          158.5          100            6.5279178      8.0075378      3.6430929      7.9331227      148.26072    
      5020   179.29437      158.5          158.5          100           -5.3320242     -9.2563735      0.56998139    -7.3096804      179.29437    
      5040   154.05719      158.5          158.5          100            2.6205013     -0.24179043     3.7696191      4.3336751      154.05719    
      5060   177.60937      158.5          158.5          100            2.3705163      4.0192827     -2.2227223      5.3149886      177.60937    
      5080   165.37928      158.5          158.5          100           -4.6391233     -4.2631861     -2.90425       -6.7499336      165.37928    
      5100   177.1163       158.5          158.5          100            0.69146262    -0.57063001     1.7255475      0.91947034     177.1163     
      5120   161.18377      158.5          158.5          100            0.2753208      2.1431112     -5.6798715      4.3627227      161.18377    
      5140   172.1389       158.5          158.5          100           -1.4378735      0.062801604   -3.2399925     -1.1364295      172.1389     
      5160   168.32656      158.5          158.5          100            4.4504001      4.6978169      8.1190433      0.53434        168.32656    
      5180   156.77262      158.5          158.5          100           -0.99788533     2.1245115     -3.9895896     -1.1285778      156.77262    
      5200   166.93106      158.5          158.5          100           -4.3224471      1.3879774     -11.650488     -2.7048309      166.93106    
      5220   171.55466      158.5          158.5          100            0.8945905      4.544671      -1.664246      -0.19665351     171.55466    
      5240   172.39125      158.5          158.5          100            0.19193203    -0.80224347     5.2894501     -3.9114105      172.39125    
      5260   178.55336      158.5          158.5          100           -3.1456908     -5.2594921     -0.3163525     -3.8612279      178.55336    
      5280   171.09637      158.5          158.5          100            3.0830733      2.6244643      0.82355316     5.8012024      171.09637    
      5300   169.36959      158.5          158.5          100           -0.039690613    2.8618336      1.7502617     -4.7311671      169.36959    
      5320   186.07536      158.5          158.5          100           -2.0008405     -2.7517855     -0.036629747   -3.2141063      186.07536    
      5340   168.39419      158.5          158.5          100            0.22310886    -1.9569316      0.78066303     1.8455951      168.39419    
      5360   174.55497      158.5          158.5          100           -3.3250739     -4.1428058     -4.7658716     -1.0665442      174.55497    
      5380   168.35274      158.5          158.5          100           -3.5423053     -3.4040026     -6.6777474     -0.54516605     168.35274    
      5400   168.58937      158.5          158.5          100            3.0111443      2.2956495      5.2101884      1.527595       168.58937    
      5420   156.11611      158.5          158.5          100           -0.82316753     2.6179715      1.3140309     -6.401505       156.11611    
      5440   180.10601      158.5          158.5          100           -2.2296448      0.66471545    -6.6639864     -0.68966352     180.10601    
      5460   156.19218      158.5          158.5          100            8.4775448      1.5611051      10.332954      13.538576      156.19218    
      5480   164.9422       158.5          158.5          100           -0.1609876     -0.17387269    -3.6378355      3.3287454      164.9422     
      5500   158.09982      158.5          158.5          100            1.444898       3.9002308     -1.8869801      2.3214435      158.09982    
      5520   143.99559      158.5          158.5          100            4.1791019      6.6336796      3.2837007      2.6199255      143.99559    
      5540   160.16868      158.5          158.5          100           -6.8482683     -7.9526879     -8.5369323     -4.0551847      160.16868    
      5560   158.46989      158.5          158.5          100           -1.3128239     -6.021483       0.84772073     1.2352907      158.46989    
      5580   146.68616      158.5          158.5          100           -2.1096557      0.58018603    -2.4283787     -4.4807745      146.68616    
      5600   148.71496      158.5          158.5          100           -2.8561043     -0.33123071    -2.1134102     -6.1236721      148.71496    
      5620   141.12683      158.5          158.5          100            3.9805017     -7.2797883      8.4181779      10.803116      141.12683    
      5640   157.16803      158.5          158.5          100           -2.7476601     -4.0478872     -5.1438251      0.94873194     157.16803    
      5660   148.1274       158.5          158.5          100           -1.137975       4.2381743     -2.79355       -4.8585493      148.1274     
      5680   151.42598      158.5          158.5          100           -1.7836071     -3.3663609      2.1721721     -4.1566325      151.42598    
      5700   145.87131      158.5          158.5          100            1.581614      -3.6609009      6.2909699      2.1147731      145.87131    
      5720   169.42283      158.5          158.5          100            2.3411655      5.1991734      0.79134278     1.0329804      169.42283    
      5740   160.35042      158.5          158.5          100            2.3551953      5.3412109      2.3757739     -0.65139891     160.35042    
      5760   166.02058      158.5          158.5          100            4.4774911      4.1000843      1.5599063      7.7724825      166.02058    
      5780   159.88688      158.5          158.5          100           -2.9665007     -6.6852228     -2.8108412      0.59656184     159.88688    
      5800   166.16813      158.5          158.5          100            0.27295462     0.52343351     3.5140593     -3.218629       166.16813    
      5820   154.20482      158.5          158.5          100            1.3237203      5.145132       0.25838142    -1.4323524      154.20482    
      5840   166.51625      158.5          158.5          100           -4.8312873     -10.617849     -1.9967702     -1.8792423      166.51625    
      5860   171.59887      158.5          158.5          100           -3.1288383     -12.108831      2.1483791      0.57393736     171.59887    
      5880   161.5731       158.5          158.5          100           -2.732483       0.39452799     0.14134862    -8.7333256      161.5731     
      5900   158.43058      158.5          158.5          100           -2.6793887      1.176867      -1.0887017     -8.1263315      158.43058    
      5920   159.7384       158.5          158.5          100            4.8381777      3.3789813      3.6718293      7.4637226      159.7384     
      5940   161.69081      158.5          158.5          100            2.346453      -2.6477931      4.8547165      4.8324357      161.69081    
      5960   171.08563      158.5          158.5          100           -0.41505086    -2.7018902     -2.3539309      3.8106686      171.08563    
      5980   162.27689      158.5          158.5          100            2.9412094      5.0769924      1.2985026      2.4481332      162.27689    
      6000   163.43072      158.5          158.5          100           -2.8517844     -4.4935145      0.805321      -4.8671597      163.43072    
      6020   155.58183      158.5          158.5          100            3.2216791     -1.6276474      0.87516519     10.417519      155.58183    
      6040   152.14975      158.5          158.5          100            0.88397725     2.3883045      1.5948958     -1.3312686      152.14975    
      6060   165.44435      158.5          158.5          100           -3.6030114      0.44125136    -4.5697805     -6.680505       165.44435    
      6080   149.01895      158.5          158.5          100            2.8406943     -1.9899512      2.6011766      7.9108575      149.01895    
      6100   157.16793      158.5          158.5          100           -1.4032742     -4.8909836     -0.6277041      1.3088651      157.16793    
      6120   139.38136      158.5          158.5          100           -2.3320402      1.5016007     -0.93105205    -7.5666691      139.38136    
      6140   161.62377      158.5          158.5          100            0.1784779      4.6951661     -0.076159789   -4.0835726      161.62377    
      6160   141.86172      158.5          158.5          100            0.32719548     1.7888865     -2.4781792      1.6708791      141.86172    
      6180   156.51316      158.5          158.5          100           -2.2362873     -6.6539885      1.6987908     -1.7536641      156.51316    
      6200   141.93302      158.5          158.5          100            2.0684599     -3.0656967      7.707994       1.5630825      141.93302    
      6220   161.53309      158.5          158.5          100           -0.23493699     5.0745558     -0.23181247    -5.5475543      161.53309    
      6240   143.73632      158.5          158.5          100           -2.882137       2.829342      -7.8234181     -3.652335       143.73632    
      6260   137.95143      158.5          158.5          100            5.9672926      4.069208       6.6737288      7.1589409      137.95143    
      6280   140.38339      158.5          158.5          100           -4.1411428     -6.7481654     -2.2008354     -3.4744277      140.38339    
      6300   144.79324      158.5          158.5          100            1.4963003      2.3001855     -1.5429718      3.7316871      144.79324    
      6320   131.63063      158.5          158.5          100            4.2946253      10.043834      4.6254641     -1.7854222      131.63063    
      6340   135.92764      158.5          158.5          100           -4.8207817     -6.0141795      0.9358863     -9.3840518      135.92764    
      6360   152.97338      158.5          158.5          100            3.6947734      1.9215926      0.33617398     8.8265535      152.97338    
      6380   147.22857      158.5          158.5          100           -5.8048209     -3.9183281     -7.7156568     -5.7804777      147.22857    
      6400   153.82979      158.5          158.5          100           -4.2583461     -4.4588426     -5.1903497     -3.1258459      153.82979    
      6420   149.33328      158.5          158.5          100            4.0373706      4.2272193      2.3043916      5.580501       149.33328    
      6440   143.33783      158.5          158.5          100           -3.5212402     -0.95828531    -5.0528374     -4.5525978      143.33783    
      6460   152.45065      158.5          158.5          100            2.8920704      4.8904447      4.6282403     -0.84247385     152.45065    
      6480   154.57873      158.5          158.5          100           -1.9448135      0.85450495    -4.0301678     -2.6587776      154.57873    
      6500   158.06055      158.5          158.5          100           -4.6128651     -3.7629796     -8.7211708     -1.3544449      158.06055    
      6520   143.12666      158.5          158.5          100            4.7606589      0.4338987      8.6364543      5.2116237      143.12666    
      6540   154.37908      158.5          158.5          100           -3.7780321     -1.1578757     -5.4133026     -4.762918       154.37908    
      6560   159.51562      158.5          158.5          100            2.5189545      5.0219701     -1.2529395      3.7878329      159.51562    
      6580   158.81449      158.5          158.5          100           -0.61789297    -3.1300792      6.007807      -4.7314068      158.81449    
      6600   159.45881      158.5          158.5          100           -3.983855      -1.6961074     -1.6883405     -8.5671172      159.45881    
      6620   168.886        158.5          158.5          100            5.3970897      8.87986        1.5923402      5.7190688      168.886      
      6640   158.65234      158.5          158.5          100           -0.88335376    -3.0238958      0.96624641    -0.59241185     158.65234    
      6660   157.83447      158.5          158.5          100            3.3069072      1.0015684      6.6341871      2.284966       157.83447    
      6680   150.03853      158.5          158.5          100           -0.34840549    -0.27248903    -2.7974193      2.0246918      150.03853    
      6700   166.67296      158.5          158.5          100           -1.9136606     -1.0470345     -4.8577011      0.16375372     166.67296    
      6720   140.96886      158.5          158.5          100            4.2224907      8.1799235      6.3519119     -1.8643633      140.96886    
      6740   156.09905      158.5          158.5          100            0.63005037    -1.1612414      5.578811      -2.5274184      156.09905    
      6760   155.48334      158.5          158.5          100           -1.9369172     -8.0847444     -4.5006187      6.7746114      155.48334    
      6780   144.81401      158.5          158.5          100           -0.84460129     2.8025257     -8.0337606      2.697431       144.81401    
      6800   135.45141      158.5          158.5          100           -1.0099867      3.558989      -0.73730613    -5.851643       135.45141    
      6820   141.72865      158.5          158.5          100           -1.0711882     -4.2523074      2.9992818     -1.9605391      141.72865    
      6840   126.78902      158.5          158.5          100           -1.6442428     -1.2923289     -1.7971723     -1.8432272      126.78902    
      6860   143.06511      158.5          158.5          100           -4.5650447     -3.5674049     -3.9863655     -6.1413638      143.06511    
      6880   128.97916      158.5          158.5          100           -2.7160143     -4.1860483      0.96099456    -4.9229893      128.97916    
      6900   135.34647      158.5          158.5          100           -0.59108619     2.4523916     -1.847162      -2.3784882      135.34647    
      6920   122.94574      158.5          158.5          100            1.3885634     -1.2490672      0.49491501     4.9198424      122.94574    
      6940   129.22201      158.5          158.5          100            4.761006       4.2329515      5.8592621      4.1908046      129.22201    
      6960   129.51045      158.5          158.5          100            3.0409971      7.9945814      0.8034451      0.32496489     129.51045    
      6980   129.24617      158.5          158.5          100            2.3885681      4.6608704     -1.2812992      3.786133       129.24617    
      7000   138.78821      158.5          158.5          100            1.604719      -1.1063231      5.222892       0.69758795     138.78821    
      7020   136.17736      158.5          158.5          100           -2.3457988     -7.0347646     -2.9476958      2.945064       136.17736    
      7040   127.25678      158.5          158.5          100            0.82573398     1.6029168     -6.0156962      6.8899813      127.25678    
      7060   133.39365      158.5          158.5          100           -0.16651152     3.6618924      1.474773      -5.6361999      133.39365    
      7080   152.35272      158.5          158.5          100           -2.0204382     -1.6809864     -0.52764209    -3.8526861      152.35272    
      7100   137.3335       158.5          158.5          100            4.0014898      5.3111963     -0.39986207     7.0931353      137.3335     
      7120   140.62269      158.5          158.5          100            2.6666179      2.6766559      4.9162517      0.40694606     140.62269    
      7140   145.19497      158.5          158.5          100           -3.1794153     -5.4403316      0.21285812    -4.3107725      145.19497    
      7160   142.92135      158.5          158.5          100            1.9753368      0.56034777    -1.4969231      6.8625856      142.92135    
      7180   147.7          158.5          158.5          100           -2.2329652     -5.0313166     -5.3197603      3.6521812      147.7        
      7200   135.19474      158.5          158.5          100            1.5065228      4.1351409      2.3920983     -2.0076707      135.19474    
      7220   152.61205      158.5          158.5          100            0.74388849     6.407489      -1.5986052     -2.5772183      152.61205    
      7240   148.16094      158.5          158.5          100           -6.3559495     -6.3347995     -3.580101      -9.1529481      148.16094    
      7260   146.82564      158.5          158.5          100            3.9381864      2.2406452      7.5859894      1.9879246      146.82564    
      7280   149.27216      158.5          158.5          100           -1.1127101     -6.3558918     -6.6829574      9.7007188      149.27216    
      7300   139.51421      158.5          158.5          100            2.000872       3.2021354     -1.2987979      4.0992785      139.51421    
      7320   164.53889      158.5          158.5          100            4.6623758      7.3842979      9.2825442     -2.6797147      164.53889    
      7340   145.40501      158.5          158.5          100           -9.1728287     -11.34478      -7.8156242     -8.3580822      145.40501    
      7360   151.34101      158.5          158.5          100            2.2963125      1.5226518     -0.16498941     5.5312752      151.34101    
      7380   136.12166      158.5          158.5          100           -5.2919669     -5.4148951     -5.1137521     -5.3472535      136.12166    
      7400   150.78808      158.5          158.5          100           -0.07458201     2.8481466     -0.40854961    -2.663343       150.78808    
      7420   146.86415      158.5          158.5          100            6.7650009      9.4091223      7.3454833      3.5403972      146.86415    
      7440   154.78915      158.5          158.5          100           -0.12470323    -6.2319487      2.9056278      2.9522113      154.78915    
      7460   149.01805      158.5          158.5          100            7.7277138      4.6010831      8.8971464      9.6849118      149.01805    
      7480   137.72197      158.5          158.5          100            0.12466032     5.2922892     -1.3879584     -3.5303498      137.72197    
      7500   147.446        158.5          158.5          100           -2.3241679     -4.1236841     -0.0068546254  -2.8419649      147.446      
      7520   126.30517      158.5          158.5          100            1.3898161     -3.0927051     -0.91410343     8.1762567      126.30517    
      7540   150.77208      158.5          158.5          100           -6.0704782     -2.57458       -7.3989073     -8.2379472      150.77208    
      7560   144.96929      158.5          158.5          100            4.8538154      9.5027241      8.1550392     -3.096317       144.96929    
      7580   137.59951      158.5          158.5          100            2.2950247      0.38301661     4.5895703      1.9124871      137.59951    
      7600   146.70254      158.5          158.5          100           -7.7661626     -14.152886     -6.3178206     -2.8277813      146.70254    
      7620   134.87065      158.5          158.5          100           -0.621678       0.05702629    -0.81784239    -1.1042179      134.87065    
      7640   142.02009      158.5          158.5          100           -1.2436871      1.9276538     -1.3604359     -4.2982791      142.02009    
      7660   145.58594      158.5          158.5          100            0.12182695     0.99217309     2.1549009     -2.7815932      145.58594    
      7680   155.85724      158.5          158.5          100            4.2204271      2.4714564      10.073314      0.11651119     155.85724    
      7700   142.07206      158.5          158.5          100           -2.0436298     -4.6202721      0.22111179    -1.731729       142.07206    
      7720   165.39309      158.5          158.5          100            0.36415824     2.3288394     -4.0766827      2.8403181      165.39309    
      7740   158.33157      158.5          158.5          100           -1.5174651      1.8607996     -4.4271561     -1.9860388      158.33157    
      7760   164.0309       158.5          158.5          100           -4.6591701     -11.313232     -0.88432456    -1.779954       164.0309     
      7780   168.27108      158.5          158.5          100           -0.86872707    -0.48619454    -3.3507188      1.2307322      168.27108    
      7800   161.92897      158.5          158.5          100            1.348487       9.5642766     -3.6673958     -1.8514197      161.92897    
      7820   153.95088      158.5          158.5          100           -4.748487      -4.210199      -0.53074249    -9.5045195      153.95088    
      7840   168.15882      158.5          158.5          100            2.5454292     -2.3113729      8.7174918      1.2301687      168.15882    
      7860   154.06103      158.5          158.5          100           -1.1427448     -2.446733      -3.6460703      2.6645688      154.06103    
      7880   164.73048      158.5          158.5          100           -1.0113336      2.0543797     -0.61912519    -4.4692552      164.73048    
      7900   146.38392      158.5          158.5          100            5.3290945      7.4213001      4.7669074      3.7990759      146.38392    
      7920   155.33639      158.5          158.5          100           -4.7067958     -4.3481829     -5.5141674     -4.2580372      155.33639    
      7940   151.07611      158.5          158.5          100            5.4915713      1.5552875      9.6312021      5.2882244      151.07611    
      7960   166.8669       158.5          158.5          100            0.67142939     2.9433936      0.68507679    -1.6141822      166.8669     
      7980   151.60732      158.5          158.5          100           -6.7064667     -4.1287661     -13.153286     -2.8373479      151.60732    
      8000   166.07281      158.5          158.5          100            4.1693837     -3.1989053      11.181383      4.5256738      166.07281    
      8020   137.14685      158.5          158.5          100           -6.2834451     -9.5904222     -0.608612      -8.6513011      137.14685    
      8040   148.48204      158.5          158.5          100            4.5505629      7.3263339      1.8489259      4.4764289      148.48204    
      8060   141.55101      158.5          158.5          100            3.8107674      0.72750648     7.2546898      3.4501059      141.55101    
      8080   150.3731       158.5          158.5          100           -5.7554612     -8.0085227     -1.4964018     -7.761459       150.3731     
      8100   128.5138       158.5          158.5          100            5.9952628      10.493337     -0.49488946     7.9873407      128.5138     
      8120   148.79545      158.5          158.5          100           -5.3857939     -2.266974      -7.2047017     -6.6857059      148.79545    
      8140   135.28478      158.5          158.5          100           -0.012312172   -4.4131482      7.3398791     -2.9636675      135.28478    
      8160   131.70179      158.5          158.5          100            1.1418324     -3.0440325      3.3753629      3.0941668      131.70179    
      8180   136.3804       158.5          158.5          100           -2.6067694      2.9684356     -10.634317     -0.15442693     136.3804     
      8200   141.08326      158.5          158.5          100            7.9900141      13.869553      5.7096147      4.390875       141.08326    
      8220   121.12976      158.5          158.5          100           -1.7656353      1.3997569      0.47167618    -7.1683388      121.12976    
      8240   121.14591      158.5          158.5          100           -5.2735006     -8.4908368     -1.5306201     -5.7990448      121.14591    
      8260   137.18859      158.5          158.5          100            0.92102443    -7.5342995      2.1479954      8.1493774      137.18859    
      8280   125.04247      158.5          158.5          100           -6.1269277     -5.2130069     -5.7514779     -7.4162984      125.04247    
      8300   121.90516      158.5          158.5          100            3.279993       4.0120655      6.2467858     -0.41887227     121.90516    
      8320   128.34646      158.5          158.5          100            1.9742658      0.18380278     1.7429912      3.9960035      128.34646    
      8340   119.40057      158.5          158.5          100           -2.3210741     -0.92871367    -7.0859667      1.051458       119.40057    
      8360   149.17103      158.5          158.5          100            5.7352785      4.3349599      6.4088841      6.4619916      149.17103    
      8380   129.73642      158.5          158.5          100           -3.7967258     -2.0069881      2.0562802     -11.43947       129.73642    
      8400   155.02139      158.5          158.5          100           -0.064080983    1.6945722      1.1310636     -3.0178788      155.02139    
      8420   134.63921      158.5          158.5          100            5.3643644      2.3040233      0.48005139     13.309018      134.63921    
      8440   155.512        158.5          158.5          100           -2.7125648     -5.0452643     -0.09525728    -2.9971729      155.512      
      8460   134.74483      158.5          158.5          100            3.4694351      3.1197186      11.271396     -3.9828089      134.74483    
      8480   155.15337      158.5          158.5          100           -2.2356216     -1.2027375     -3.3358807     -2.1682467      155.15337    
      8500   141.19509      158.5          158.5          100           -1.3476572     -2.0295445     -5.6676035      3.6541763      141.19509    
      8520   157.91313      158.5          158.5          100           -2.8710171     -4.4717756     -0.082061774   -4.0592138      157.91313    
      8540   136.10892      158.5          158.5          100           -0.62950962     6.3555804      0.32234832    -8.5664576      136.10892    
      8560   149.92991      158.5          158.5          100            4.2475967      3.4756478      2.9942409      6.2729012      149.92991    
      8580   126.04457      158.5          158.5          100           -3.0193343     -13.616171     -1.4874006      6.0455686      126.04457    
      8600   161.24431      158.5          158.5          100            3.1980405      6.2898841     -2.892154       6.1963915      161.24431    
      8620   159.53713      158.5          158.5          100           -4.4753977      7.6239934     -11.982373     -9.0678135      159.53713    
      8640   156.14153      158.5          158.5          100           -3.2756456     -8.4047139     -0.48513427    -0.93708873     156.14153    
      8660   134.88055      158.5          158.5          100            3.2237915     -2.9543541      8.0396593      4.5860694      134.88055    
      8680   148.94406      158.5          158.5          100           -1.5197851      3.2220333     -5.277195      -2.5041936      148.94406    
      8700   144.47852      158.5          158.5          100            2.246528       6.9658306     -1.2328971      1.0066504      144.47852    
      8720   142.33024      158.5          158.5          100            1.0500286     -3.7159908      7.404211      -0.53813449     142.33024    
      8740   142.34986      158.5          158.5          100            0.033417068   -2.4797465     -1.7240199      4.3040176      142.34986    
      8760   152.48302      158.5          158.5          100            0.13580391     6.0528543     -8.2487882      2.6033457      152.48302    
      8780   133.95852      158.5          158.5          100           -0.22571497     3.7221829      2.4051894     -6.8045172      133.95852    
      8800   128.15578      158.5          158.5          100           -3.2997994     -2.6943872      0.87950033    -8.0845114      128.15578    
      8820   144.25059      158.5          158.5          100            1.5492908     -4.865935       3.3763333      6.1374741      144.25059    
      8840   141.36147      158.5          158.5          100            1.0329128     -1.8996952     -1.2062748      6.2047084      141.36147    
      8860   127.13649      158.5          158.5          100            1.1519895      6.2547596      4.8927698     -7.691561       127.13649    
      8880   127.8755       158.5          158.5          100            2.477657       1.6429091      8.3014393     -2.5113775      127.8755     
      8900   134.03754      158.5          158.5          100           -1.2485255     -4.5438037     -6.2194514      7.0176788      134.03754    
      8920   130.27921      158.5          158.5          100            2.490848       10.220891     -6.9504516      4.2021045      130.27921    
      8940   123.58239      158.5          158.5          100            0.0094770201   6.9630096      1.239403      -8.1739815      123.58239    
      8960   131.32927      158.5          158.5          100           -1.0378395     -5.4709257      0.84988602     1.5075212      131.32927    
      8980   130.87857      158.5          158.5          100           -0.47438241    -6.7956562      0.2837871      5.0887219      130.87857    
      9000   138.5204       158.5          158.5          100           -1.8214239      2.7884321     -2.5146705     -5.7380333      138.5204     
      9020   156.49063      158.5          158.5          100           -0.69997419    -0.35565189    -3.9565646      2.2122939      156.49063    
      9040   154.52578      158.5          158.5          100            0.78798463    -1.5451966      6.5969433     -2.6877928      154.52578    
      9060   142.50025      158.5          158.5          100           -0.50525789    -2.4152134     -1.9520251      2.8514649      142.50025    
      9080   151.03297      158.5          158.5          100           -2.1713429      0.79536803    -10.725094      3.4156972      151.03297    
      9100   160.88308      158.5          158.5          100            1.9727455      1.9880598      4.0665002     -0.13632351     160.88308    
      9120   146.39961      158.5          158.5          100            2.2310886     -3.4717576      6.7937414      3.3712822      146.39961    
      9140   157.92516      158.5          158.5          100            6.1850438      4.6946486      2.9705945      10.889888      157.92516    
      9160   159.55547      158.5          158.5          100            3.9285109      10.400979     -3.1420202      4.5265743      159.55547    
      9180   161.52767      158.5          158.5          100           -0.13687942     0.21091499     1.2854102     -1.9069635      161.52767    
      9200   158.53193      158.5          158.5          100            3.6082192     -4.3405245      12.718615      2.4465675      158.53193    
      9220   148.2383       158.5          158.5          100            8.0248116      3.4213005      11.062019      9.5911152      148.2383     
      9240   149.49714      158.5          158.5          100            2.3734876      8.7728206     -5.3248158      3.6724581      149.49714    
      9260   155.36814      158.5          158.5          100            6.2735387      12.462412      0.87087677     5.4873277      155.36814    
      9280   154.84382      158.5          158.5          100           -0.080031653   -2.7300791      1.5334943      0.95648975     154.84382    
      9300   143.91344      158.5          158.5          100           -6.3469346     -14.109705     -2.3326423     -2.5984566      143.91344    
      9320   129.07938      158.5          158.5          100            3.496649       9.1728749     -0.86707459     2.1841466      129.07938    
      9340   129.01987      158.5          158.5          100           -9.6096341     -1.4304437     -12.765486     -14.632973      129.01987    
      9360   128.3658       158.5          158.5          100           -0.11390018    -8.9676422      7.5587637      1.067178       128.3658     
      9380   117.8659       158.5          158.5          100            6.0642769      3.0928395      8.6236761      6.476315       117.8659     
      9400   132.97518      158.5          158.5          100           -8.249058      -0.73447959    -16.121217     -7.8914769      132.97518    
      9420   118.24297      158.5          158.5          100            4.5499288      4.8476284      2.5200867      6.2820714      118.24297    
      9440   128.14897      158.5          158.5          100           -1.2452901     -9.3489722      4.2589307      1.3541712      128.14897    
      9460   119.9047       158.5          158.5          100           -2.9084912     -3.2677673     -0.72799457    -4.7297116      119.9047     
      9480   129.11219      158.5          158.5          100            8.1768412      17.588403     -2.1862408      9.1283618      129.11219    
      9500   152.03018      158.5          158.5          100           -5.0898484      0.92871293    -8.7873499     -7.4109082      152.03018    
      9520   132.4433       158.5          158.5          100            1.7969997     -1.2008598      10.66407      -4.0722111      132.4433     
      9540   126.69519      158.5          158.5          100            5.194722       7.3756484      5.217353       2.9911645      126.69519    
      9560   140.56403      158.5          158.5          100           -2.8982536      2.3820254     -8.4222676     -2.6545185      140.56403    
      9580   120.3125       158.5          158.5          100            4.9560145      6.1262657      1.6384059      7.1033717      120.3125     
[...]
    234260   139.75985      158.5          158.5          100            1.2255835     -1.3969118      2.8585817      2.2150805      139.75985    
    234280   140.20784      158.5          158.5          100            0.84012126     1.1657879     -1.0966867      2.4512626      140.20784    
    234300   152.76534      158.5          158.5          100           -1.106231       4.6979237     -5.0457138     -2.970903       152.76534    
    234320   148.64588      158.5          158.5          100           -1.2322266     -4.5397054      0.83393792     0.0090877626   148.64588    
    234340   117.0981       158.5          158.5          100           -0.58594703    -5.5469111      1.7632058      2.0258642      117.0981     
    234360   157.37808      158.5          158.5          100            0.82534779    -2.6438859      0.69714853     4.4227807      157.37808    
    234380   144.56655      158.5          158.5          100           -2.5609552      0.34379984    -5.780996      -2.2456695      144.56655    
    234400   136.9485       158.5          158.5          100            1.5021604      1.0592852      4.4007439     -0.95354782     136.9485     
    234420   141.51855      158.5          158.5          100            4.3836965     -1.912487       8.7275023      6.3360744      141.51855    
    234440   136.60206      158.5          158.5          100           -1.5143498     -1.9446561     -1.7081255     -0.89026791     136.60206    
    234460   148.38605      158.5          158.5          100           -2.215019       3.7943102     -4.7724142     -5.666953       148.38605    
    234480   147.17638      158.5          158.5          100            0.45835237    -3.0318355      2.884402       1.5224907      147.17638    
    234500   129.69419      158.5          158.5          100           -4.9412548     -13.530825     -3.6520809      2.359141       129.69419    
    234520   146.39095      158.5          158.5          100            1.9897873      10.049315     -4.552028       0.47207449     146.39095    
    234540   123.76538      158.5          158.5          100           -1.2562585      4.6220389     -3.7165959     -4.6742185      123.76538    
    234560   130.39128      158.5          158.5          100           -5.2531311     -8.420933      -4.6262856     -2.7121748      130.39128    
    234580   158.40766      158.5          158.5          100            0.33556035    -5.4876682      3.6585843      2.8357649      158.40766    
    234600   128.03627      158.5          158.5          100           -3.5782272     -4.9854474     -3.2410554     -2.5081788      128.03627    
    234620   117.00083      158.5          158.5          100            2.4674976      13.122083     -0.51844008    -5.20115        117.00083    
    234640   139.70288      158.5          158.5          100            6.0565871      7.2515888      6.6424221      4.2757503      139.70288    
    234660   131.82794      158.5          158.5          100           -0.75747073    -11.232108      2.3130469      6.6466487      131.82794    
    234680   141.09457      158.5          158.5          100            1.4436144      2.080875       2.9803895     -0.73042116     141.09457    
    234700   123.52305      158.5          158.5          100            0.42835257     6.7816663     -0.57441749    -4.9221911      123.52305    
    234720   145.2613       158.5          158.5          100           -0.94884477    -6.0250392     -2.9643475      6.1428524      145.2613     
    234740   134.22547      158.5          158.5          100            0.074474195   -4.5075361      2.4862672      2.2446915      134.22547    
    234760   138.74604      158.5          158.5          100           -3.4185144     -5.2510256     -3.0687119     -1.9358056      138.74604    
    234780   164.30759      158.5          158.5          100           -5.0654015     -1.5058057     -8.0677224     -5.6226763      164.30759    
    234800   132.35855      158.5          158.5          100            0.9182456      2.6567416      2.0524405     -1.9544454      132.35855    
    234820   149.90454      158.5          158.5          100            1.1980989      0.41543052    -0.75144735     3.9303135      149.90454    
    234840   144.31931      158.5          158.5          100           -0.64054293    -10.154862      5.5741165      2.6591166      144.31931    
    234860   153.6795       158.5          158.5          100            3.3411578      5.3377616      4.1108187      0.57489321     153.6795     
    234880   156.06662      158.5          158.5          100           -3.1853015      5.6896992     -8.4101238     -6.83548        156.06662    
    234900   144.96184      158.5          158.5          100            1.5244565      1.9974573      0.98771059     1.5882017      144.96184    
    234920   141.16085      158.5          158.5          100           -2.1914326     -9.9702164      3.0745233      0.3213952      141.16085    
    234940   153.40248      158.5          158.5          100           -2.6514494      1.8991062     -3.5469627     -6.3064916      153.40248    
    234960   135.70376      158.5          158.5          100            3.314022       5.3976808      2.5739152      1.9704701      135.70376    
    234980   142.94151      158.5          158.5          100            2.248275      -3.8857068      2.3381341      8.2923976      142.94151    
    235000   146.31791      158.5          158.5          100            2.0439091      0.014057431    0.81611383     5.301556       146.31791    
    235020   132.94516      158.5          158.5          100            1.5941066      4.7940993      3.7945107     -3.8062901      132.94516    
    235040   130.1247       158.5          158.5          100           -0.33144283     4.7147965     -1.2644477     -4.4446773      130.1247     
    235060   130.37399      158.5          158.5          100           -0.74286535    -5.1471007     -3.806116       6.7246207      130.37399    
    235080   118.83764      158.5          158.5          100           -1.5114408     -2.2384192     -1.3823238     -0.91357943     118.83764    
    235100   129.39747      158.5          158.5          100           -0.46463678     7.5879062      1.4150783     -10.396895      129.39747    
    235120   128.8779       158.5          158.5          100           -0.93107499     4.3991795     -1.5944316     -5.5979729      128.8779     
    235140   137.13786      158.5          158.5          100           -0.6710704     -6.8109307      2.7101428      2.0875767      137.13786    
    235160   125.67319      158.5          158.5          100            3.2811525      0.41593119     3.6776899      5.7498366      125.67319    
    235180   134.56613      158.5          158.5          100           -4.5265936     -3.9736746     -4.857025      -4.7490811      134.56613    
    235200   123.85215      158.5          158.5          100           -0.052584055    2.8179994     -0.74304345    -2.2327081      123.85215    
    235220   132.81752      158.5          158.5          100            0.94135103     1.5225474      3.2126971     -1.9111914      132.81752    
    235240   130.24541      158.5          158.5          100           -3.9496933     -2.78071       -4.6802368     -4.388133       130.24541    
    235260   148.2855       158.5          158.5          100            6.8486921      7.7369997      2.9996348      9.8094418      148.2855     
    235280   136.74693      158.5          158.5          100           -2.0019932     -0.83156468    -2.6926428     -2.4817721      136.74693    
    235300   121.90311      158.5          158.5          100            2.9341787      1.3440928      5.0990435      2.3593997      121.90311    
    235320   126.65965      158.5          158.5          100           -0.49417555    -4.2495725      1.9205649      0.84648091     126.65965    
    235340   136.56328      158.5          158.5          100           -2.9843087     -1.6251745      0.23428168    -7.5620332      136.56328    
    235360   148.94609      158.5          158.5          100            6.0363909      16.285989      2.1401314     -0.31694782     148.94609    
    235380   148.41485      158.5          158.5          100           -3.1384467     -3.1529518     -6.4947442      0.23235572     148.41485    
    235400   132.86135      158.5          158.5          100            1.6539006     -4.0009184      6.6514606      2.3111595      132.86135    
    235420   144.43687      158.5          158.5          100           -5.0404867     -4.4019322     -4.2605136     -6.4590143      144.43687    
    235440   143.29687      158.5          158.5          100            2.6282397      7.5478704     -2.0304861      2.3673347      143.29687    
    235460   160.09072      158.5          158.5          100            1.1705929      4.839781      -1.8315493      0.50354694     160.09072    
    235480   167.09848      158.5          158.5          100           -12.920158     -13.255469     -13.343511     -12.161494      167.09848    
    235500   152.09165      158.5          158.5          100            10.550686      11.707404      11.826912      8.1177401      152.09165    
    235520   154.0724       158.5          158.5          100           -5.7156546     -12.605897     -1.8258746     -2.715192       154.0724     
    235540   173.15042      158.5          158.5          100            1.9920857      1.7551327      1.8131148      2.4080096      173.15042    
    235560   154.09702      158.5          158.5          100            9.8000567      8.0232124      11.598769      9.7781887      154.09702    
    235580   178.12225      158.5          158.5          100           -10.371016     -11.062418     -13.922367     -6.1282611      178.12225    
    235600   152.81518      158.5          158.5          100            7.5563864      10.075193      7.8802878      4.713679       152.81518    
    235620   154.20761      158.5          158.5          100           -6.6399729     -9.649402      -0.53485789    -9.7356589      154.20761    
    235640   151.30348      158.5          158.5          100           -2.8955655     -4.6575052     -5.7011607      1.6719694      151.30348    
    235660   139.46383      158.5          158.5          100            11.004928      13.385247      9.9144675      9.7150695      139.46383    
    235680   154.60931      158.5          158.5          100           -6.4296844     -9.6442555      1.102082      -10.74688       154.60931    
    235700   134.11625      158.5          158.5          100            7.7456072      3.2042047      10.310857      9.7217601      134.11625    
    235720   135.16854      158.5          158.5          100            5.7942712      1.219309       8.3273843      7.8361204      135.16854    
    235740   156.24937      158.5          158.5          100           -6.2176109     -3.0446283     -5.7025749     -9.9056295      156.24937    
    235760   126.78695      158.5          158.5          100            8.3567416      14.598997      5.171714       5.2995139      126.78695    
    235780   142.21385      158.5          158.5          100           -7.7912362     -12.865439     -5.5394905     -4.9687793      142.21385    
    235800   126.26827      158.5          158.5          100           -0.81173795     0.92871205    -2.6309235     -0.7330024      126.26827    
    235820   131.51422      158.5          158.5          100            1.5540529      6.3799109     -5.5552056      3.8374535      131.51422    
    235840   128.40685      158.5          158.5          100           -4.3648085     -6.325843      -7.0033062      0.2347235      128.40685    
    235860   132.63239      158.5          158.5          100            7.5293944      8.1595292      8.1716547      6.2569993      132.63239    
    235880   116.94796      158.5          158.5          100           -1.8000066     -1.1031431      2.2783187     -6.5751954      116.94796    
    235900   120.35012      158.5          158.5          100            3.5369105      3.1938002      4.0242222      3.3927091      120.35012    
    235920   138.47759      158.5          158.5          100            2.1454655      5.3445289     -2.2787281      3.3705956      138.47759    
    235940   123.78688      158.5          158.5          100           -3.0623062     -2.1511248      0.86679196    -7.9025858      123.78688    
    235960   127.12026      158.5          158.5          100            1.3418949     -3.9648861      10.459898     -2.4693275      127.12026    
    235980   132.62919      158.5          158.5          100           -2.5791969     -4.130129      -3.9427145      0.33525286     132.62919    
    236000   133.14522      158.5          158.5          100            0.31280818     3.4909313     -3.4688545      0.91634774     133.14522    
    236020   126.82625      158.5          158.5          100            3.4830545      6.1321864      5.8155328     -1.4985557      126.82625    
    236040   133.53802      158.5          158.5          100            3.1107674     -1.1574246      7.8062922      2.6834345      133.53802    
    236060   118.33172      158.5          158.5          100            3.0432423      3.869859       2.2864287      2.9734391      118.33172    
    236080   116.55048      158.5          158.5          100            1.9736925      2.3404979     -0.34538668     3.9259663      116.55048    
    236100   125.61095      158.5          158.5          100           -4.9666619     -6.0482202     -8.3819118     -0.46985368     125.61095    
    236120   124.50019      158.5          158.5          100            0.010328886   -1.7605245     -0.72260987     2.5141211      124.50019    
    236140   143.39653      158.5          158.5          100           -0.21360481    -2.3302282      2.2313046     -0.54189084     143.39653    
    236160   127.95831      158.5          158.5          100           -5.0789597     -0.94794809    -9.0474666     -5.2414644      127.95831    
    236180   136.274        158.5          158.5          100            8.8156736      8.3882756      10.235795      7.8229505      136.274      
    236200   129.51388      158.5          158.5          100           -1.3852328     -4.1738896      1.2802056     -1.2620146      129.51388    
    236220   125.45916      158.5          158.5          100            1.4584459      5.8315743     -4.6735583      3.2173217      125.45916    
    236240   140.16921      158.5          158.5          100            2.9694804      5.0203541      3.0087043      0.87938287     140.16921    
    236260   139.03482      158.5          158.5          100           -10.730835     -14.564681     -3.9418972     -13.685927      139.03482    
    236280   126.851        158.5          158.5          100            3.371353       7.1562688      1.3866261      1.5711641      126.851      
    236300   107.1097       158.5          158.5          100           -2.6464582     -4.0337394     -5.6485549      1.7429197      107.1097     
    236320   113.47264      158.5          158.5          100           -3.0377593     -6.8160195      0.4171223     -2.7143808      113.47264    
    236340   120.01882      158.5          158.5          100            6.3315695      9.4302337      7.3910718      2.173403       120.01882    
    236360   108.4255       158.5          158.5          100           -0.18457413     1.0080934     -1.1237583     -0.4380574      108.4255     
    236380   104.85378      158.5          158.5          100            5.7281003      1.5231851      4.6921753      10.96894       104.85378    
    236400   103.61482      158.5          158.5          100           -0.14314819    -1.8244658      3.4769158     -2.0818945      103.61482    
    236420   105.11799      158.5          158.5          100           -0.26819901     2.7170802     -0.97678698    -2.5448903      105.11799    
    236440   108.3684       158.5          158.5          100           -0.087994863   -2.2643963      0.034958831    1.9654529      108.3684     
    236460   118.71534      158.5          158.5          100           -5.0254541     -8.3598764     -5.9823745     -0.73411152     118.71534    
    236480   95.156054      158.5          158.5          100            6.4162412      9.0871482      4.6235129      5.5380624      95.156054    
    236500   126.38367      158.5          158.5          100           -3.6330754     -0.8668471     -2.8389166     -7.1934626      126.38367    
    236520   118.44961      158.5          158.5          100            2.5824035      5.2754054      3.1914134     -0.71960818     118.44961    
    236540   126.45093      158.5          158.5          100            3.305268       0.49107434     5.3465883      4.0781415      126.45093    
    236560   131.52888      158.5          158.5          100           -6.6762645     -9.357151      -2.3141389     -8.3575036      131.52888    
    236580   122.01912      158.5          158.5          100            6.4378806      9.471519       6.0960948      3.746028       122.01912    
    236600   122.88828      158.5          158.5          100            0.60950861     5.3877338     -6.6498804      3.0906725      122.88828    
    236620   141.6719       158.5          158.5          100           -5.9308445     -10.807892     -5.1494127     -1.8352285      141.6719     
    236640   139.72822      158.5          158.5          100            5.4422027      2.9136543      6.147401       7.2655527      139.72822    
    236660   136.75344      158.5          158.5          100           -2.471821       3.7231326     -7.7225274     -3.4160682      136.75344    
    236680   131.85595      158.5          158.5          100            0.70039689    -1.6799148     -0.0075350654   3.7886405      131.85595    
    236700   149.32762      158.5          158.5          100            2.2431008     -1.9284957     -0.51597642     9.1737745      149.32762    
    236720   133.56845      158.5          158.5          100           -6.1190063     -4.6782134     -6.7155683     -6.9632371      133.56845    
    236740   133.69849      158.5          158.5          100            4.2948273      4.1675149      5.7193095      2.9976574      133.69849    
    236760   127.21111      158.5          158.5          100           -0.74879205     2.4990635     -1.4806966     -3.264743       127.21111    
    236780   119.9454       158.5          158.5          100           -0.40222999    -4.6549014      3.2249588      0.22325262     119.9454     
    236800   137.49133      158.5          158.5          100            2.335102      -3.1905175      6.2920065      3.9038168      137.49133    
    236820   132.29087      158.5          158.5          100           -3.2734019     -0.43628537    -1.8194424     -7.564478       132.29087    
    236840   135.71777      158.5          158.5          100            1.9353098      1.3069804      3.3187881      1.1801608      135.71777    
    236860   126.37029      158.5          158.5          100           -2.6273432     -2.1884065     -5.8407549      0.14713185     126.37029    
    236880   129.12313      158.5          158.5          100            1.8002294      0.65706972     4.3528735      0.39074488     129.12313    
    236900   138.1162       158.5          158.5          100            0.34515335    -3.5373168      4.9823726     -0.40959572     138.1162     
    236920   129.5841       158.5          158.5          100           -4.399869      -4.9267628     -5.7131215     -2.5597226      129.5841     
    236940   146.63268      158.5          158.5          100            1.0418761      0.60096992    -0.37358033     2.8982387      146.63268    
ERROR on proc 0: Angle atoms 1 2 3 missing on proc 0 at step 236952 (src/src/ntopo_angle_all.cpp:62)
Last command: run 10000000
